      -----------------------------------------------------------      
     |                   =====================                   |     
     |                           x T B                           |     
     |                   =====================                   |     
     |                         S. Grimme                         |     
     |          Mulliken Center for Theoretical Chemistry        |     
     |                    University of Bonn                     |     
      -----------------------------------------------------------      

   * xtb version 6.7.1 (8fbd559) compiled by 'daniel-wiczew@NEBULA' on 2025-11-19

   xtb is free software: you can redistribute it and/or modify it under
   the terms of the GNU Lesser General Public License as published by
   the Free Software Foundation, either version 3 of the License, or
   (at your option) any later version.
   
   xtb is distributed in the hope that it will be useful,
   but WITHOUT ANY WARRANTY; without even the implied warranty of
   MERCHANTABILITY or FITNESS FOR A PARTICULAR PURPOSE.  See the
   GNU Lesser General Public License for more details.
   
   Cite this work as:
   * C. Bannwarth, E. Caldeweyher, S. Ehlert, A. Hansen, P. Pracht,
     J. Seibert, S. Spicher, S. Grimme, WIREs Comput. Mol. Sci., 2020, 11,
     e01493. DOI: 10.1002/wcms.1493
   
   for GFN2-xTB:
   * C. Bannwarth, S. Ehlert and S. Grimme., J. Chem. Theory Comput., 2019,
     15, 1652-1671. DOI: 10.1021/acs.jctc.8b01176
   for GFN1-xTB:
   * S. Grimme, C. Bannwarth, P. Shushkov, J. Chem. Theory Comput., 2017,
     13, 1989-2009. DOI: 10.1021/acs.jctc.7b00118
   for GFN0-xTB:
   * P. Pracht, E. Caldeweyher, S. Ehlert, S. Grimme, ChemRxiv, 2019, preprint.
     DOI: 10.26434/chemrxiv.8326202.v1
   for GFN-FF:
   * S. Spicher and S. Grimme, Angew. Chem. Int. Ed., 2020, 59, 15665-15673.
     DOI: 10.1002/anie.202004239
   
   for ALPB and GBSA implicit solvation:
   * S. Ehlert, M. Stahn, S. Spicher, S. Grimme, J. Chem. Theory Comput.,
     2021, 17, 4250-4261. DOI: 10.1021/acs.jctc.1c00471
   
   for ddCOSMO and CPCM-X implicit solvation:
   * M. Stahn, S. Ehlert, S. Grimme, J. Phys. Chem. A,
     2023, XX, XXXX-XXXX. DOI: 10.1021/acs.jpca.3c04382
   
   for DFT-D4:
   * E. Caldeweyher, C. Bannwarth and S. Grimme, J. Chem. Phys., 2017,
     147, 034112. DOI: 10.1063/1.4993215
   * E. Caldeweyher, S. Ehlert, A. Hansen, H. Neugebauer, S. Spicher,
     C. Bannwarth and S. Grimme, J. Chem. Phys., 2019, 150, 154122.
     DOI: 10.1063/1.5090222
   * E. Caldeweyher, J.-M. Mewes, S. Ehlert and S. Grimme, Phys. Chem. Chem. Phys.
     2020, 22, 8499-8512. DOI: 10.1039/D0CP00502A
   
   for sTDA-xTB:
   * S. Grimme and C. Bannwarth, J. Chem. Phys., 2016, 145, 054103.
     DOI: 10.1063/1.4959605
   
   in the mass-spec context:
   * V. Asgeirsson, C. Bauer and S. Grimme, Chem. Sci., 2017, 8, 4879.
     DOI: 10.1039/c7sc00601b
   * J. Koopman and S. Grimme, ACS Omega 2019, 4, 12, 15120-15133.
     DOI: 10.1021/acsomega.9b02011
   
   for metadynamics refer to:
   * S. Grimme, J. Chem. Theory Comput., 2019, 155, 2847-2862
     DOI: 10.1021/acs.jctc.9b00143
   
   for SPH calculations refer to:
   * S. Spicher and S. Grimme, J. Chem. Theory Comput., 2021, 17, 1701-1714
     DOI: 10.1021/acs.jctc.0c01306
   
   for ONIOM refer to:
   * C. Plett, A. Katbashev, S. Ehlert, S. Grimme, M. Bursch,
     Phys. Chem. Chem. Phys., 2023, 25, 17860-17868. DOI: 10.1039/D3CP02178E
   
   for DIPRO refer to:
   * J. Kohn, N. Gildemeister, S. Grimme, D. Fazzi, A. Hansen,
     J. Chem. Phys. 159, 144106 (2023). DOI: 10.1063/5.0167484
   
   for PTB refer to:
   * S. Grimme, M. Mueller, A. Hansen, J. Chem. Phys., 2023, 158, 124111.
     DOI: 10.1063/5.0137838
   
   with help from (in alphabetical order)
   P. Atkinson, C. Bannwarth, F. Bohle, G. Brandenburg, E. Caldeweyher
   M. Checinski, S. Dohm, S. Ehlert, S. Ehrlich, I. Gerasimov, C. Hölzer
   A. Katbashev, J. Kohn, J. Koopman, C. Lavigne, S. Lehtola, F. März, M. Müller,
   F. Musil, H. Neugebauer, J. Pisarek, C. Plett, P. Pracht, F. Pultar,
   J. Seibert, P. Shushkov, S. Spicher, M. Stahn, M. Steiner, T. Strunk,
   J. Stückrath, T. Rose, and J. Unsleber
   
 * started run on 2025/11/19 at 17:37:27.000     
   ID    Z sym.   atoms
    1    6 C      1-6
    2    1 H      7-12

           -------------------------------------------------
          |                Calculation Setup                |
           -------------------------------------------------

          program call               : build/xtb /home/daniel-wiczew/build/xtb/benchmarks/systems/benzene.xyz --gfn2 --bhess
          coordinate file            : /home/daniel-wiczew/build/xtb/benchmarks/systems/benzene.xyz
          omp threads                :                     4


           -------------------------------------------------
          |                 G F N 2 - x T B                 |
           -------------------------------------------------

        Reference                      10.1021/acs.jctc.8b01176
      * Hamiltonian:
        H0-scaling (s, p, d)           1.850000    2.230000    2.230000
        zeta-weighting                 0.500000
      * Dispersion:
        s8                             2.700000
        a1                             0.520000
        a2                             5.000000
        s9                             5.000000
      * Repulsion:
        kExp                           1.500000    1.000000
        rExp                           1.000000
      * Coulomb:
        alpha                          2.000000
        third order                    shell-resolved
        anisotropic                    true
        a3                             3.000000
        a5                             4.000000
        cn-shift                       1.200000
        cn-exp                         4.000000
        max-rad                        5.000000

q/qsh data taken from xtbrestart
CAMM data taken from xtbrestart

          ...................................................
          :                      SETUP                      :
          :.................................................:
          :  # basis functions                  30          :
          :  # atomic orbitals                  30          :
          :  # shells                           18          :
          :  # electrons                        30          :
          :  max. iterations                   250          :
          :  Hamiltonian                  GFN2-xTB          :
          :  restarted?                       true          :
          :  GBSA solvation                  false          :
          :  PC potential                    false          :
          :  electronic temp.          300.0000000     K    :
          :  accuracy                    1.0000000          :
          :  -> integral cutoff          0.2500000E+02      :
          :  -> integral neglect         0.1000000E-07      :
          :  -> SCF convergence          0.1000000E-05 Eh   :
          :  -> wf. convergence          0.1000000E-03 e    :
          :  Broyden damping             0.4000000          :
          :  net charge                          0          :
          :  unpaired electrons                  0          :
          ...................................................
build_SDQH0 timing [translation, transform, screening] (s):    0.000622    0.000051    0.000005
build_SDQH0 diagonal (s):    0.000254

 iter      E             dE          RMSdq      gap      omega  full diag
   1    -16.1782235 -0.161782E+02  0.872E-07    4.81       0.0  T
   2    -16.1782235 -0.248690E-13  0.549E-07    4.81   52589.8  T
   3    -16.1782235  0.106581E-13  0.617E-08    4.81  100000.0  T

   *** convergence criteria satisfied after 3 iterations ***

         #    Occupation            Energy/Eh            Energy/eV
      -------------------------------------------------------------
         1        2.0000           -0.6382217             -17.3669
       ...           ...                  ...                  ...
         9        2.0000           -0.4756150             -12.9421
        10        2.0000           -0.4755140             -12.9394
        11        2.0000           -0.4711985             -12.8220
        12        2.0000           -0.4219741             -11.4825
        13        2.0000           -0.4219588             -11.4821
        14        2.0000           -0.4005862             -10.9005
        15        2.0000           -0.4004809             -10.8976 (HOMO)
        16                         -0.2238975              -6.0926 (LUMO)
        17                         -0.2237809              -6.0894
        18                         -0.0969943              -2.6393
        19                          0.1167034               3.1757
        20                          0.1253667               3.4114
       ...                                ...                  ...
        30                          0.6430932              17.4995
      -------------------------------------------------------------
                  HL-Gap            0.1765834 Eh            4.8051 eV
             Fermi-level           -0.3121892 Eh           -8.4951 eV

 SCC (total)                   0 d,  0 h,  0 min,  0.003 sec
 SCC setup                      ...        0 min,  0.000 sec (  2.472%)
 Dispersion                     ...        0 min,  0.000 sec (  2.847%)
 classical contributions        ...        0 min,  0.000 sec (  0.969%)
 integral evaluation            ...        0 min,  0.000 sec ( 16.619%)
 iterations                     ...        0 min,  0.001 sec ( 46.464%)
 molecular gradient             ...        0 min,  0.001 sec ( 26.321%)
 printout                       ...        0 min,  0.000 sec (  3.927%)

         :::::::::::::::::::::::::::::::::::::::::::::::::::::
         ::                     SUMMARY                     ::
         :::::::::::::::::::::::::::::::::::::::::::::::::::::
         :: total energy             -15.878766725053 Eh    ::
         :: gradient norm              0.025569014164 Eh/a0 ::
         :: HOMO-LUMO gap              4.805079679156 eV    ::
         ::.................................................::
         :: SCC energy               -16.178216448159 Eh    ::
         :: -> isotropic ES            0.000795140247 Eh    ::
         :: -> anisotropic ES          0.002677821127 Eh    ::
         :: -> anisotropic XC          0.012939282002 Eh    ::
         :: -> dispersion             -0.007984332019 Eh    ::
         :: repulsion energy           0.299449723106 Eh    ::
         :: add. restraining           0.000000000000 Eh    ::
         :: total charge              -0.000000000000 e     ::
         :::::::::::::::::::::::::::::::::::::::::::::::::::::

metadynamics with 1 initial structures loaded
           -------------------------------------------------
          |           Optimal kpush determination           |
           -------------------------------------------------
build_SDQH0 timing [translation, transform, screening] (s):    0.000573    0.000043    0.000004
build_SDQH0 diagonal (s):    0.000187
      ----------------------------------------------------------- 
     |                   =====================                   |
     |                        A N C O P T                        |
     |                   =====================                   |
     |               Approximate Normal Coordinate               |
     |                Rational Function Optimizer                |
      ----------------------------------------------------------- 
build_SDQH0 timing [translation, transform, screening] (s):    0.000581    0.000044    0.000004
build_SDQH0 diagonal (s):    0.000215
build_SDQH0 timing [translation, transform, screening] (s):    0.000626    0.000049    0.000004
build_SDQH0 diagonal (s):    0.000311
build_SDQH0 timing [translation, transform, screening] (s):    0.000754    0.000048    0.000005
build_SDQH0 diagonal (s):    0.000193
build_SDQH0 timing [translation, transform, screening] (s):    0.000723    0.000047    0.000004
build_SDQH0 diagonal (s):    0.000188
build_SDQH0 timing [translation, transform, screening] (s):    0.000638    0.000046    0.000004
build_SDQH0 diagonal (s):    0.000187
target rmsd / Å         0.100000
unbiased initial rmsd   0.013152

iter. min.        max.        rmsd       kpush
final kpush: -0.000000
           -------------------------------------------------
          |            Biased Numerical Hessian             |
           -------------------------------------------------
build_SDQH0 timing [translation, transform, screening] (s):    0.000751    0.000051    0.000005
build_SDQH0 diagonal (s):    0.000186
kpush                :  -0.00000
alpha                :   1.00000
step length          :   0.00500
SCC accuracy         :   0.30000
Hessian scale factor :   1.00000
frozen atoms in %    :   0.00000    0
RMS gradient         :   0.00003
build_SDQH0 timing [translation, transform, screening] (s):    0.000585    0.000041    0.000004
build_SDQH0 diagonal (s):    0.000153
build_SDQH0 timing [translation, transform, screening] (s):    0.000585    0.000041    0.000004
build_SDQH0 diagonal (s):    0.000151
build_SDQH0 timing [translation, transform, screening] (s):    0.000588    0.000041    0.000004
build_SDQH0 diagonal (s):    0.000151
build_SDQH0 timing [translation, transform, screening] (s):    0.000589    0.000041    0.000004
build_SDQH0 diagonal (s):    0.000152
build_SDQH0 timing [translation, transform, screening] (s):    0.000587    0.000041    0.000004
build_SDQH0 diagonal (s):    0.000152
build_SDQH0 timing [translation, transform, screening] (s):    0.000591    0.000041    0.000004
build_SDQH0 diagonal (s):    0.000153
build_SDQH0 timing [translation, transform, screening] (s):    0.000588    0.000041    0.000004
build_SDQH0 diagonal (s):    0.000152
build_SDQH0 timing [translation, transform, screening] (s):    0.000592    0.000041    0.000004
build_SDQH0 diagonal (s):    0.000152
build_SDQH0 timing [translation, transform, screening] (s):    0.000594    0.000041    0.000004
build_SDQH0 diagonal (s):    0.000151
build_SDQH0 timing [translation, transform, screening] (s):    0.000598    0.000042    0.000004
build_SDQH0 diagonal (s):    0.000152
build_SDQH0 timing [translation, transform, screening] (s):    0.000639    0.000041    0.000004
build_SDQH0 diagonal (s):    0.000152
build_SDQH0 timing [translation, transform, screening] (s):    0.000592    0.000041    0.000004
build_SDQH0 diagonal (s):    0.000152
build_SDQH0 timing [translation, transform, screening] (s):    0.000586    0.000041    0.000004
build_SDQH0 diagonal (s):    0.000158
build_SDQH0 timing [translation, transform, screening] (s):    0.000584    0.000041    0.000004
build_SDQH0 diagonal (s):    0.000151
build_SDQH0 timing [translation, transform, screening] (s):    0.000590    0.000041    0.000004
build_SDQH0 diagonal (s):    0.000152
build_SDQH0 timing [translation, transform, screening] (s):    0.000591    0.000041    0.000004
build_SDQH0 diagonal (s):    0.000151
build_SDQH0 timing [translation, transform, screening] (s):    0.000586    0.000041    0.000004
build_SDQH0 diagonal (s):    0.000151
build_SDQH0 timing [translation, transform, screening] (s):    0.000590    0.000041    0.000004
build_SDQH0 diagonal (s):    0.000152
build_SDQH0 timing [translation, transform, screening] (s):    0.000587    0.000042    0.000004
build_SDQH0 diagonal (s):    0.000153
build_SDQH0 timing [translation, transform, screening] (s):    0.000586    0.000041    0.000004
build_SDQH0 diagonal (s):    0.000157
build_SDQH0 timing [translation, transform, screening] (s):    0.000588    0.000041    0.000004
build_SDQH0 diagonal (s):    0.000152
build_SDQH0 timing [translation, transform, screening] (s):    0.000588    0.000041    0.000004
build_SDQH0 diagonal (s):    0.000151
build_SDQH0 timing [translation, transform, screening] (s):    0.000587    0.000041    0.000004
build_SDQH0 diagonal (s):    0.000151
build_SDQH0 timing [translation, transform, screening] (s):    0.000588    0.000041    0.000004
build_SDQH0 diagonal (s):    0.000151
estimated CPU  time      0.00 min
estimated wall time      0.00 min
build_SDQH0 timing [translation, transform, screening] (s):    0.000585    0.000041    0.000004
build_SDQH0 diagonal (s):    0.000151
build_SDQH0 timing [translation, transform, screening] (s):    0.000584    0.000041    0.000004
build_SDQH0 diagonal (s):    0.000153
build_SDQH0 timing [translation, transform, screening] (s):    0.000594    0.000041    0.000004
build_SDQH0 diagonal (s):    0.000152
build_SDQH0 timing [translation, transform, screening] (s):    0.000587    0.000041    0.000004
build_SDQH0 diagonal (s):    0.000152
build_SDQH0 timing [translation, transform, screening] (s):    0.000594    0.000041    0.000004
build_SDQH0 diagonal (s):    0.000154
build_SDQH0 timing [translation, transform, screening] (s):    0.000587    0.000041    0.000004
build_SDQH0 diagonal (s):    0.000151
build_SDQH0 timing [translation, transform, screening] (s):    0.000584    0.000041    0.000004
build_SDQH0 diagonal (s):    0.000151
build_SDQH0 timing [translation, transform, screening] (s):    0.000586    0.000041    0.000004
build_SDQH0 diagonal (s):    0.000151
build_SDQH0 timing [translation, transform, screening] (s):    0.000586    0.000041    0.000004
build_SDQH0 diagonal (s):    0.000151
build_SDQH0 timing [translation, transform, screening] (s):    0.000586    0.000041    0.000004
build_SDQH0 diagonal (s):    0.000151
build_SDQH0 timing [translation, transform, screening] (s):    0.000587    0.000041    0.000004
build_SDQH0 diagonal (s):    0.000152
build_SDQH0 timing [translation, transform, screening] (s):    0.000584    0.000041    0.000004
build_SDQH0 diagonal (s):    0.000151
build_SDQH0 timing [translation, transform, screening] (s):    0.000584    0.000041    0.000004
build_SDQH0 diagonal (s):    0.000151
build_SDQH0 timing [translation, transform, screening] (s):    0.000584    0.000041    0.000004
build_SDQH0 diagonal (s):    0.000151
build_SDQH0 timing [translation, transform, screening] (s):    0.000586    0.000041    0.000004
build_SDQH0 diagonal (s):    0.000151
build_SDQH0 timing [translation, transform, screening] (s):    0.000586    0.000041    0.000004
build_SDQH0 diagonal (s):    0.000151
build_SDQH0 timing [translation, transform, screening] (s):    0.000584    0.000041    0.000004
build_SDQH0 diagonal (s):    0.000151
build_SDQH0 timing [translation, transform, screening] (s):    0.000586    0.000041    0.000004
build_SDQH0 diagonal (s):    0.000152
build_SDQH0 timing [translation, transform, screening] (s):    0.000584    0.000041    0.000004
build_SDQH0 diagonal (s):    0.000151
build_SDQH0 timing [translation, transform, screening] (s):    0.000587    0.000041    0.000004
build_SDQH0 diagonal (s):    0.000151
build_SDQH0 timing [translation, transform, screening] (s):    0.000587    0.000041    0.000004
build_SDQH0 diagonal (s):    0.000151
build_SDQH0 timing [translation, transform, screening] (s):    0.000586    0.000041    0.000004
build_SDQH0 diagonal (s):    0.000151
build_SDQH0 timing [translation, transform, screening] (s):    0.000588    0.000041    0.000004
build_SDQH0 diagonal (s):    0.000151
build_SDQH0 timing [translation, transform, screening] (s):    0.000587    0.000041    0.000004
build_SDQH0 diagonal (s):    0.000151
build_SDQH0 timing [translation, transform, screening] (s):    0.000585    0.000041    0.000004
build_SDQH0 diagonal (s):    0.000151
build_SDQH0 timing [translation, transform, screening] (s):    0.000587    0.000041    0.000004
build_SDQH0 diagonal (s):    0.000151
build_SDQH0 timing [translation, transform, screening] (s):    0.000587    0.000041    0.000004
build_SDQH0 diagonal (s):    0.000151
build_SDQH0 timing [translation, transform, screening] (s):    0.000586    0.000041    0.000004
build_SDQH0 diagonal (s):    0.000151
build_SDQH0 timing [translation, transform, screening] (s):    0.000587    0.000041    0.000004
build_SDQH0 diagonal (s):    0.000151
build_SDQH0 timing [translation, transform, screening] (s):    0.000587    0.000043    0.000004
build_SDQH0 diagonal (s):    0.000151
build_SDQH0 timing [translation, transform, screening] (s):    0.000540    0.000042    0.000004
build_SDQH0 diagonal (s):    0.000077
build_SDQH0 timing [translation, transform, screening] (s):    0.000586    0.000041    0.000004
build_SDQH0 diagonal (s):    0.000151
build_SDQH0 timing [translation, transform, screening] (s):    0.000310    0.000038    0.000003
build_SDQH0 diagonal (s):    0.000076
build_SDQH0 timing [translation, transform, screening] (s):    0.000587    0.000041    0.000004
build_SDQH0 diagonal (s):    0.000151
build_SDQH0 timing [translation, transform, screening] (s):    0.000585    0.000041    0.000004
build_SDQH0 diagonal (s):    0.000151
build_SDQH0 timing [translation, transform, screening] (s):    0.000310    0.000038    0.000003
build_SDQH0 diagonal (s):    0.000076
build_SDQH0 timing [translation, transform, screening] (s):    0.000588    0.000041    0.000004
build_SDQH0 diagonal (s):    0.000151
build_SDQH0 timing [translation, transform, screening] (s):    0.000596    0.000041    0.000004
build_SDQH0 diagonal (s):    0.000154
build_SDQH0 timing [translation, transform, screening] (s):    0.000313    0.000037    0.000003
build_SDQH0 diagonal (s):    0.000076
build_SDQH0 timing [translation, transform, screening] (s):    0.000590    0.000041    0.000004
build_SDQH0 diagonal (s):    0.000153
build_SDQH0 timing [translation, transform, screening] (s):    0.000585    0.000041    0.000004
build_SDQH0 diagonal (s):    0.000151
build_SDQH0 timing [translation, transform, screening] (s):    0.000315    0.000038    0.000003
build_SDQH0 diagonal (s):    0.000076
build_SDQH0 timing [translation, transform, screening] (s):    0.000597    0.000041    0.000004
build_SDQH0 diagonal (s):    0.000152
build_SDQH0 timing [translation, transform, screening] (s):    0.000314    0.000038    0.000003
build_SDQH0 diagonal (s):    0.000077
build_SDQH0 timing [translation, transform, screening] (s):    0.000587    0.000043    0.000004
build_SDQH0 diagonal (s):    0.000151
build_SDQH0 timing [translation, transform, screening] (s):    0.000317    0.000039    0.000003
build_SDQH0 diagonal (s):    0.000078
build_SDQH0 timing [translation, transform, screening] (s):    0.000589    0.000041    0.000004
build_SDQH0 diagonal (s):    0.000152
build_SDQH0 timing [translation, transform, screening] (s):    0.000586    0.000041    0.000004
build_SDQH0 diagonal (s):    0.000151

writing file <hessian>, containing the non-mass-weighted Hessian matrix in atomic units (Eₕ/Bohr²).

writing file <hessian_sph>.

 projected vibrational frequencies (cm⁻¹)
eigval :       -0.00    -0.00     0.00     0.00     0.00     0.00
eigval :      368.40   368.40   579.08   579.12   657.50   692.70
eigval :      882.08   882.10   930.51   930.51   936.99   956.92
eigval :     1066.89  1090.50  1090.51  1176.09  1198.31  1198.33
eigval :     1304.24  1319.59  1460.43  1460.47  1599.82  1599.84
eigval :     3068.19  3071.75  3071.85  3083.82  3083.88  3092.22
           -------------------------------------------------
          |                Property Printout                |
           -------------------------------------------------

    * Orbital Energies and Occupations

         #    Occupation            Energy/Eh            Energy/eV
      -------------------------------------------------------------
         1        2.0000           -0.6416550             -17.4603
       ...           ...                  ...                  ...
         3        2.0000           -0.6114911             -16.6395
         4        2.0000           -0.5690018             -15.4833
         5        2.0000           -0.5690007             -15.4833
         6        2.0000           -0.5311811             -14.4542
         7        2.0000           -0.4950015             -13.4697
         8        2.0000           -0.4894022             -13.3173
         9        2.0000           -0.4763509             -12.9622
        10        2.0000           -0.4763488             -12.9621
        11        2.0000           -0.4747544             -12.9187
        12        2.0000           -0.4213977             -11.4668
        13        2.0000           -0.4213974             -11.4668
        14        2.0000           -0.4025262             -10.9533
        15        2.0000           -0.4025245             -10.9532 (HOMO)
        16                         -0.2211979              -6.0191 (LUMO)
        17                         -0.2211969              -6.0191
        18                         -0.0899260              -2.4470
        19                          0.1179847               3.2105
        20                          0.1376791               3.7464
        21                          0.1734510               4.7198
        22                          0.1734565               4.7200
        23                          0.2026760               5.5151
        24                          0.2026815               5.5152
        25                          0.4132059              11.2439
        26                          0.4132299              11.2446
       ...                                ...                  ...
        30                          0.6740837              18.3428
      -------------------------------------------------------------
                  HL-Gap            0.1813265 Eh            4.9341 eV
             Fermi-level           -0.3118612 Eh           -8.4862 eV

     #   Z          covCN         q      C6AA      α(0)
     1   6          2.920    -0.029    28.718     8.788
     2   6          2.920    -0.029    28.718     8.788
     3   6          2.920    -0.029    28.718     8.788
     4   6          2.920    -0.029    28.718     8.788
     5   6          2.920    -0.029    28.718     8.788
     6   6          2.920    -0.029    28.718     8.788
     7   1          0.926     0.029     2.604     2.524
     8   1          0.926     0.029     2.605     2.524
     9   1          0.926     0.029     2.605     2.524
    10   1          0.926     0.029     2.604     2.524
    11   1          0.926     0.029     2.605     2.524
    12   1          0.926     0.029     2.605     2.524

 Mol. C6AA /au·bohr⁶  :       1749.472178
 Mol. C8AA /au·bohr⁸  :      42661.692866
 Mol. α(0) /au        :         67.869883


Wiberg/Mayer (AO) data.
largest (>0.10) Wiberg bond orders for each atom

 ---------------------------------------------------------------------------
     #   Z sym  total        # sym  WBO       # sym  WBO       # sym  WBO
 ---------------------------------------------------------------------------
     1   6      3.993 --     6      1.441     2      1.441     7      0.972
                             4      0.114
     2   6      3.993 --     1      1.441     3      1.441     8      0.972
                             5      0.114
     3   6      3.993 --     4      1.441     2      1.441     9      0.972
                             6      0.114
     4   6      3.993 --     3      1.441     5      1.441    10      0.972
                             1      0.114
     5   6      3.993 --     4      1.441     6      1.441    11      0.972
                             2      0.114
     6   6      3.993 --     1      1.441     5      1.441    12      0.972
                             3      0.114
     7   1      0.999 --     1      0.972
     8   1      0.999 --     2      0.972
     9   1      0.999 --     3      0.972
    10   1      0.999 --     4      0.972
    11   1      0.999 --     5      0.972
    12   1      0.999 --     6      0.972
 ---------------------------------------------------------------------------

Topologies differ in total number of bonds
Writing topology from bond orders to xtbtopo.mol

molecular dipole:
                 x           y           z       tot (Debye)
 q only:       -0.000      -0.000      -0.000
   full:       -0.000      -0.000      -0.000       0.000
molecular quadrupole (traceless):
                xx          xy          yy          xz          yz          zz
 q only:        0.640       0.000       0.640      -0.000      -0.000      -1.280
  q+dip:        2.668       0.000       2.669      -0.000      -0.000      -5.337
   full:        1.334       0.000       1.334      -0.000      -0.000      -2.668

           -------------------------------------------------
          |                Geometry Summary                 |
           -------------------------------------------------

      molecular mass/u    :       78.1120599
   center of mass at/Å    :       -0.0000000      -0.0000000       0.0000000
  moments of inertia/u·Å² :        0.8745208E+02   0.8745354E+02   0.1749056E+03
rotational constants/cm⁻¹ :        0.1927642E+00   0.1927610E+00   0.9638131E-01

 * 12 selected distances

     #   Z          #   Z                                           value/Å
     1   6          2   6                                         1.3846005
     2   6          3   6                                         1.3846060 (max)
     3   6          4   6                                         1.3846005
     4   6          5   6                                         1.3846005
     1   6          6   6                                         1.3846005
     5   6          6   6                                         1.3846060
     1   6          7   1                                         1.0804774
     2   6          8   1                                         1.0804779
     3   6          9   1                                         1.0804779
     4   6         10   1                                         1.0804774 (min)
     5   6         11   1                                         1.0804779
     6   6         12   1                                         1.0804779

 * 2 distinct bonds (by element types)

   Z      Z             #   av. dist./Å        max./Å        min./Å
   1 H    6 C           6     1.0804777     1.0804779     1.0804774
   6 C    6 C           6     1.3846023     1.3846060     1.3846005

           -------------------------------------------------
          |               Frequency Printout                |
           -------------------------------------------------
 projected vibrational frequencies (cm⁻¹)
eigval :       -0.00    -0.00     0.00     0.00     0.00     0.00
eigval :      368.40   368.40   579.08   579.12   657.50   692.70
eigval :      882.08   882.10   930.51   930.51   936.99   956.92
eigval :     1066.89  1090.50  1090.51  1176.09  1198.31  1198.33
eigval :     1304.24  1319.59  1460.43  1460.47  1599.82  1599.84
eigval :     3068.19  3071.75  3071.85  3083.82  3083.88  3092.22
 reduced masses (amu)
    1:      4.97    2:      5.24    3:      5.62    4:      3.96    5:      3.70    6:      5.23
    7:      2.87    8:      2.87    9:      6.28   10:      6.28   11:      5.01   12:      1.08
   13:      1.25   14:      1.25   15:      1.38   16:      1.38   17:      1.14   18:      7.01
   19:      6.24   20:      1.46   21:      1.46   22:      1.01   23:      1.07   24:      1.07
   25:      1.25   26:     11.96   27:      2.56   28:      2.56   29:      7.64   30:      7.64
   31:      1.07   32:      1.08   33:      1.08   34:      1.09   35:      1.09   36:      1.09
 IR intensities (km·mol⁻¹)
    1:      0.00    2:      0.00    3:      0.00    4:      0.00    5:      0.00    6:      0.00
    7:      0.00    8:      0.00    9:      0.00   10:      0.00   11:      0.00   12:     32.62
   13:      0.00   14:      0.00   15:      0.00   16:      0.00   17:      0.00   18:      0.00
   19:      0.00   20:      0.08   21:      0.10   22:      0.00   23:      0.00   24:      0.00
   25:      0.00   26:      0.00   27:      0.01   28:      0.00   29:      0.00   30:      0.00
   31:      0.03   32:      0.00   33:      0.00   34:    123.65   35:    120.22   36:      0.00
 Raman intensities (Ä⁴*amu⁻¹)
    1:      0.00    2:      0.00    3:      0.00    4:      0.00    5:      0.00    6:      0.00
    7:      0.00    8:      0.00    9:      0.00   10:      0.00   11:      0.00   12:      0.00
   13:      0.00   14:      0.00   15:      0.00   16:      0.00   17:      0.00   18:      0.00
   19:      0.00   20:      0.00   21:      0.00   22:      0.00   23:      0.00   24:      0.00
   25:      0.00   26:      0.00   27:      0.00   28:      0.00   29:      0.00   30:      0.00
   31:      0.00   32:      0.00   33:      0.00   34:      0.00   35:      0.00   36:      0.00
 output can be read by thermo (or use thermo option).
 writing <g98.out> molden fake output.
Molecule has the following symmetry elements: (i) (C6) (C3) 7*(C2) (S6) (S3) 7*(sigma) 
It seems to be the D6h point group
Note: The following floating-point exceptions are signalling: IEEE_UNDERFLOW_FLAG IEEE_DENORMAL
normal termination of xtb
 recommended (thermochemical) frequency scaling factor: 1.0
           -------------------------------------------------
          |             Thermodynamic Functions             |
           -------------------------------------------------

d6h symmetry found (for desy threshold:  0.10E+00) used in thermo

          ...................................................
          :                      SETUP                      :
          :.................................................:
          :  # frequencies                          30      :
          :  # imaginary freq.                       0      :
          :  linear?                             false      :
          :  only rotor calc.                    false      :
          :  symmetry                              d6h      :
          :  rotational number                      12      :
          :  scaling factor                  1.0000000      :
          :  rotor cutoff                   50.0000000 cm⁻¹ :
          :  imag. cutoff                  -20.0000000 cm⁻¹ :
          :.................................................:

    mode    ω/cm⁻¹     T·S(HO)/kcal·mol⁻¹    T·S(FR)/kcal·mol⁻¹   T·S(vib)
   ------------------------------------------------------------------------
   ------------------------------------------------------------------------

   temp. (K)  partition function   enthalpy   heat capacity  entropy
                                   cal/mol     cal/K/mol   cal/K/mol   J/K/mol
 298.15  VIB   1.97                 1096.221     11.912      5.027
         ROT  0.736E+04              888.727      2.981     20.675
         INT  0.145E+05             1984.948     14.893     25.702
         TR   0.211E+26             1481.212      4.968     38.982
         TOT                        3466.1608    19.8611    64.6838   270.6371

       T/K    H(0)-H(T)+PV         H(T)/Eh          T*S/Eh         G(T)/Eh
   ------------------------------------------------------------------------
    298.15    0.552368E-02    0.103032E+00    0.307334E-01    0.722983E-01
   ------------------------------------------------------------------------

         :::::::::::::::::::::::::::::::::::::::::::::::::::::
         ::                  THERMODYNAMIC                  ::
         :::::::::::::::::::::::::::::::::::::::::::::::::::::
         :: total free energy         -15.807342395046 Eh   ::
         ::.................................................::
         :: total energy              -15.879640654844 Eh   ::
         :: zero point energy           0.097507949212 Eh   ::
         :: G(RRHO) w/o ZPVE           -0.025209689413 Eh   ::
         :: G(RRHO) contrib.            0.072298259799 Eh   ::
         :::::::::::::::::::::::::::::::::::::::::::::::::::::

optimized geometry written to: xtbopt.xyz


           -------------------------------------------------
          | TOTAL ENERGY              -15.879640654844 Eh   |
          | TOTAL ENTHALPY            -15.776609026779 Eh   |
          | TOTAL FREE ENERGY         -15.807342395046 Eh   |
          | GRADIENT NORM               0.000032654224 Eh/α |
          | HOMO-LUMO GAP               4.934145544376 eV   |
           -------------------------------------------------

------------------------------------------------------------------------
 * finished run on 2025/11/19 at 17:37:27.076     
------------------------------------------------------------------------
 total:
 * wall-time:     0 d,  0 h,  0 min,  0.076 sec
 *  cpu-time:     0 d,  0 h,  0 min,  0.229 sec
 * ratio c/w:     3.021 speedup
 SCF:
 * wall-time:     0 d,  0 h,  0 min,  0.003 sec
 *  cpu-time:     0 d,  0 h,  0 min,  0.005 sec
 * ratio c/w:     1.828 speedup
 analytical hessian:
 * wall-time:     0 d,  0 h,  0 min,  0.054 sec
 *  cpu-time:     0 d,  0 h,  0 min,  0.192 sec
 * ratio c/w:     3.584 speedup

