      -----------------------------------------------------------      
     |                   =====================                   |     
     |                           x T B                           |     
     |                   =====================                   |     
     |                         S. Grimme                         |     
     |          Mulliken Center for Theoretical Chemistry        |     
     |                    University of Bonn                     |     
      -----------------------------------------------------------      

   * xtb version 6.7.1 (93bfc74) compiled by 'daniel-wiczew@NEBULA' on 2025-11-19

   xtb is free software: you can redistribute it and/or modify it under
   the terms of the GNU Lesser General Public License as published by
   the Free Software Foundation, either version 3 of the License, or
   (at your option) any later version.
   
   xtb is distributed in the hope that it will be useful,
   but WITHOUT ANY WARRANTY; without even the implied warranty of
   MERCHANTABILITY or FITNESS FOR A PARTICULAR PURPOSE.  See the
   GNU Lesser General Public License for more details.
   
   Cite this work as:
   * C. Bannwarth, E. Caldeweyher, S. Ehlert, A. Hansen, P. Pracht,
     J. Seibert, S. Spicher, S. Grimme, WIREs Comput. Mol. Sci., 2020, 11,
     e01493. DOI: 10.1002/wcms.1493
   
   for GFN2-xTB:
   * C. Bannwarth, S. Ehlert and S. Grimme., J. Chem. Theory Comput., 2019,
     15, 1652-1671. DOI: 10.1021/acs.jctc.8b01176
   for GFN1-xTB:
   * S. Grimme, C. Bannwarth, P. Shushkov, J. Chem. Theory Comput., 2017,
     13, 1989-2009. DOI: 10.1021/acs.jctc.7b00118
   for GFN0-xTB:
   * P. Pracht, E. Caldeweyher, S. Ehlert, S. Grimme, ChemRxiv, 2019, preprint.
     DOI: 10.26434/chemrxiv.8326202.v1
   for GFN-FF:
   * S. Spicher and S. Grimme, Angew. Chem. Int. Ed., 2020, 59, 15665-15673.
     DOI: 10.1002/anie.202004239
   
   for ALPB and GBSA implicit solvation:
   * S. Ehlert, M. Stahn, S. Spicher, S. Grimme, J. Chem. Theory Comput.,
     2021, 17, 4250-4261. DOI: 10.1021/acs.jctc.1c00471
   
   for ddCOSMO and CPCM-X implicit solvation:
   * M. Stahn, S. Ehlert, S. Grimme, J. Phys. Chem. A,
     2023, XX, XXXX-XXXX. DOI: 10.1021/acs.jpca.3c04382
   
   for DFT-D4:
   * E. Caldeweyher, C. Bannwarth and S. Grimme, J. Chem. Phys., 2017,
     147, 034112. DOI: 10.1063/1.4993215
   * E. Caldeweyher, S. Ehlert, A. Hansen, H. Neugebauer, S. Spicher,
     C. Bannwarth and S. Grimme, J. Chem. Phys., 2019, 150, 154122.
     DOI: 10.1063/1.5090222
   * E. Caldeweyher, J.-M. Mewes, S. Ehlert and S. Grimme, Phys. Chem. Chem. Phys.
     2020, 22, 8499-8512. DOI: 10.1039/D0CP00502A
   
   for sTDA-xTB:
   * S. Grimme and C. Bannwarth, J. Chem. Phys., 2016, 145, 054103.
     DOI: 10.1063/1.4959605
   
   in the mass-spec context:
   * V. Asgeirsson, C. Bauer and S. Grimme, Chem. Sci., 2017, 8, 4879.
     DOI: 10.1039/c7sc00601b
   * J. Koopman and S. Grimme, ACS Omega 2019, 4, 12, 15120-15133.
     DOI: 10.1021/acsomega.9b02011
   
   for metadynamics refer to:
   * S. Grimme, J. Chem. Theory Comput., 2019, 155, 2847-2862
     DOI: 10.1021/acs.jctc.9b00143
   
   for SPH calculations refer to:
   * S. Spicher and S. Grimme, J. Chem. Theory Comput., 2021, 17, 1701-1714
     DOI: 10.1021/acs.jctc.0c01306
   
   for ONIOM refer to:
   * C. Plett, A. Katbashev, S. Ehlert, S. Grimme, M. Bursch,
     Phys. Chem. Chem. Phys., 2023, 25, 17860-17868. DOI: 10.1039/D3CP02178E
   
   for DIPRO refer to:
   * J. Kohn, N. Gildemeister, S. Grimme, D. Fazzi, A. Hansen,
     J. Chem. Phys. 159, 144106 (2023). DOI: 10.1063/5.0167484
   
   for PTB refer to:
   * S. Grimme, M. Mueller, A. Hansen, J. Chem. Phys., 2023, 158, 124111.
     DOI: 10.1063/5.0137838
   
   with help from (in alphabetical order)
   P. Atkinson, C. Bannwarth, F. Bohle, G. Brandenburg, E. Caldeweyher
   M. Checinski, S. Dohm, S. Ehlert, S. Ehrlich, I. Gerasimov, C. Hölzer
   A. Katbashev, J. Kohn, J. Koopman, C. Lavigne, S. Lehtola, F. März, M. Müller,
   F. Musil, H. Neugebauer, J. Pisarek, C. Plett, P. Pracht, F. Pultar,
   J. Seibert, P. Shushkov, S. Spicher, M. Stahn, M. Steiner, T. Strunk,
   J. Stückrath, T. Rose, and J. Unsleber
   
 * started run on 2025/11/19 at 17:40:01.396     
   ID    Z sym.   atoms
    1    6 C      1-3, 7, 8, 11, 14, 15, 19, 23, 26, 28-33, 39, 41, 42, 46,
                  47, 50, 54, 55, 57, 60, 62, 66, 72, 74, 80, 82, 86, 88,
                  90-95, 102-107
    2    1 H      4-6, 9, 10, 13, 16-18, 20-22, 24, 34-38, 40, 43, 44, 48,
                  49, 52, 53, 58, 63-65, 67-70, 75-78, 84, 85, 96-101, 108-113
    3    8 O      12, 25, 27, 45, 51, 56, 59, 61, 71, 73, 79, 81, 83, 89
    4    7 N      87

           -------------------------------------------------
          |                Calculation Setup                |
           -------------------------------------------------

          program call               : build/xtb /home/daniel-wiczew/build/xtb/assets/inputs/xyz/taxol.xyz --gfn2 --bhess
          coordinate file            : /home/daniel-wiczew/build/xtb/assets/inputs/xyz/taxol.xyz
          omp threads                :                     4


           -------------------------------------------------
          |                 G F N 2 - x T B                 |
           -------------------------------------------------

        Reference                      10.1021/acs.jctc.8b01176
      * Hamiltonian:
        H0-scaling (s, p, d)           1.850000    2.230000    2.230000
        zeta-weighting                 0.500000
      * Dispersion:
        s8                             2.700000
        a1                             0.520000
        a2                             5.000000
        s9                             5.000000
      * Repulsion:
        kExp                           1.500000    1.000000
        rExp                           1.000000
      * Coulomb:
        alpha                          2.000000
        third order                    shell-resolved
        anisotropic                    true
        a3                             3.000000
        a5                             4.000000
        cn-shift                       1.200000
        cn-exp                         4.000000
        max-rad                        5.000000

q/qsh data taken from xtbrestart
CAMM data taken from xtbrestart

          ...................................................
          :                      SETUP                      :
          :.................................................:
          :  # basis functions                 299          :
          :  # atomic orbitals                 299          :
          :  # shells                          175          :
          :  # electrons                       328          :
          :  max. iterations                   250          :
          :  Hamiltonian                  GFN2-xTB          :
          :  restarted?                       true          :
          :  GBSA solvation                  false          :
          :  PC potential                    false          :
          :  electronic temp.          300.0000000     K    :
          :  accuracy                    1.0000000          :
          :  -> integral cutoff          0.2500000E+02      :
          :  -> integral neglect         0.1000000E-07      :
          :  -> SCF convergence          0.1000000E-05 Eh   :
          :  -> wf. convergence          0.1000000E-03 e    :
          :  Broyden damping             0.4000000          :
          :  net charge                          0          :
          :  unpaired electrons                  0          :
          ...................................................
build_SDQH0 timing [translation, transform, screening] (s):    0.030879    0.004215    0.000390
build_SDQH0 diagonal (s):    0.001730

 iter      E             dE          RMSdq      gap      omega  full diag
   1   -188.8096683 -0.188810E+03  0.126E-04    2.50       0.0  T
   2   -188.8096683 -0.456339E-09  0.845E-05    2.50     111.4  T
   3   -188.8096683 -0.299963E-09  0.534E-05    2.50     176.1  T

   *** convergence criteria satisfied after 3 iterations ***

         #    Occupation            Energy/Eh            Energy/eV
      -------------------------------------------------------------
         1        2.0000           -0.8001947             -21.7744
       ...           ...                  ...                  ...
       158        2.0000           -0.4213475             -11.4654
       159        2.0000           -0.4206052             -11.4452
       160        2.0000           -0.4170701             -11.3491
       161        2.0000           -0.4148169             -11.2877
       162        2.0000           -0.4135365             -11.2529
       163        2.0000           -0.4038478             -10.9893
       164        2.0000           -0.3987808             -10.8514 (HOMO)
       165                         -0.3068578              -8.3500 (LUMO)
       166                         -0.2921302              -7.9493
       167                         -0.2740399              -7.4570
       168                         -0.2652050              -7.2166
       169                         -0.2611433              -7.1061
       ...                                ...                  ...
       299                          0.6614396              17.9987
      -------------------------------------------------------------
                  HL-Gap            0.0919230 Eh            2.5014 eV
             Fermi-level           -0.3528193 Eh           -9.6007 eV

 SCC (total)                   0 d,  0 h,  0 min,  0.134 sec
 SCC setup                      ...        0 min,  0.000 sec (  0.343%)
 Dispersion                     ...        0 min,  0.002 sec (  1.406%)
 classical contributions        ...        0 min,  0.000 sec (  0.141%)
 integral evaluation            ...        0 min,  0.013 sec (  9.443%)
 iterations                     ...        0 min,  0.088 sec ( 65.514%)
 molecular gradient             ...        0 min,  0.026 sec ( 19.613%)
 printout                       ...        0 min,  0.005 sec (  3.533%)

         :::::::::::::::::::::::::::::::::::::::::::::::::::::
         ::                     SUMMARY                     ::
         :::::::::::::::::::::::::::::::::::::::::::::::::::::
         :: total energy            -186.500449129759 Eh    ::
         :: gradient norm              0.142094951692 Eh/a0 ::
         :: HOMO-LUMO gap              2.501351853783 eV    ::
         ::.................................................::
         :: SCC energy              -188.798381929792 Eh    ::
         :: -> isotropic ES            0.336320405885 Eh    ::
         :: -> anisotropic ES         -0.000859864091 Eh    ::
         :: -> anisotropic XC          0.039432541895 Eh    ::
         :: -> dispersion             -0.169331509974 Eh    ::
         :: repulsion energy           2.297932800033 Eh    ::
         :: add. restraining           0.000000000000 Eh    ::
         :: total charge               0.000000000000 e     ::
         :::::::::::::::::::::::::::::::::::::::::::::::::::::

metadynamics with 1 initial structures loaded
           -------------------------------------------------
          |           Optimal kpush determination           |
           -------------------------------------------------
build_SDQH0 timing [translation, transform, screening] (s):    0.026285    0.003917    0.000378
build_SDQH0 diagonal (s):    0.001208
      ----------------------------------------------------------- 
     |                   =====================                   |
     |                        A N C O P T                        |
     |                   =====================                   |
     |               Approximate Normal Coordinate               |
     |                Rational Function Optimizer                |
      ----------------------------------------------------------- 
build_SDQH0 timing [translation, transform, screening] (s):    0.026222    0.003950    0.000383
build_SDQH0 diagonal (s):    0.001373
build_SDQH0 timing [translation, transform, screening] (s):    0.026385    0.003938    0.000381
build_SDQH0 diagonal (s):    0.001321
build_SDQH0 timing [translation, transform, screening] (s):    0.026258    0.003900    0.000379
build_SDQH0 diagonal (s):    0.001322
build_SDQH0 timing [translation, transform, screening] (s):    0.026131    0.003903    0.000379
build_SDQH0 diagonal (s):    0.001347
build_SDQH0 timing [translation, transform, screening] (s):    0.026138    0.003883    0.000378
build_SDQH0 diagonal (s):    0.001331
build_SDQH0 timing [translation, transform, screening] (s):    0.026323    0.004180    0.000380
build_SDQH0 diagonal (s):    0.001410
build_SDQH0 timing [translation, transform, screening] (s):    0.026070    0.003906    0.000382
build_SDQH0 diagonal (s):    0.001400
build_SDQH0 timing [translation, transform, screening] (s):    0.025916    0.003903    0.000381
build_SDQH0 diagonal (s):    0.001303
build_SDQH0 timing [translation, transform, screening] (s):    0.026060    0.003928    0.000388
build_SDQH0 diagonal (s):    0.001357
build_SDQH0 timing [translation, transform, screening] (s):    0.026041    0.003935    0.000380
build_SDQH0 diagonal (s):    0.001344
build_SDQH0 timing [translation, transform, screening] (s):    0.026025    0.003911    0.000378
build_SDQH0 diagonal (s):    0.001328
build_SDQH0 timing [translation, transform, screening] (s):    0.026092    0.003903    0.000380
build_SDQH0 diagonal (s):    0.001314
build_SDQH0 timing [translation, transform, screening] (s):    0.025978    0.003906    0.000378
build_SDQH0 diagonal (s):    0.001320
build_SDQH0 timing [translation, transform, screening] (s):    0.025886    0.003897    0.000380
build_SDQH0 diagonal (s):    0.001300
build_SDQH0 timing [translation, transform, screening] (s):    0.025823    0.003960    0.000379
build_SDQH0 diagonal (s):    0.001317
build_SDQH0 timing [translation, transform, screening] (s):    0.025864    0.003904    0.000378
build_SDQH0 diagonal (s):    0.001288
build_SDQH0 timing [translation, transform, screening] (s):    0.025922    0.003943    0.000382
build_SDQH0 diagonal (s):    0.001323
build_SDQH0 timing [translation, transform, screening] (s):    0.025740    0.003942    0.000385
build_SDQH0 diagonal (s):    0.001331
build_SDQH0 timing [translation, transform, screening] (s):    0.025807    0.003928    0.000380
build_SDQH0 diagonal (s):    0.001306
build_SDQH0 timing [translation, transform, screening] (s):    0.025823    0.003929    0.000380
build_SDQH0 diagonal (s):    0.001334
build_SDQH0 timing [translation, transform, screening] (s):    0.025663    0.003902    0.000378
build_SDQH0 diagonal (s):    0.001329
build_SDQH0 timing [translation, transform, screening] (s):    0.025757    0.003884    0.000380
build_SDQH0 diagonal (s):    0.001303
build_SDQH0 timing [translation, transform, screening] (s):    0.025869    0.003920    0.000378
build_SDQH0 diagonal (s):    0.001317
build_SDQH0 timing [translation, transform, screening] (s):    0.025861    0.003929    0.000377
build_SDQH0 diagonal (s):    0.001326
build_SDQH0 timing [translation, transform, screening] (s):    0.025778    0.003948    0.000381
build_SDQH0 diagonal (s):    0.001256
build_SDQH0 timing [translation, transform, screening] (s):    0.025825    0.003896    0.000380
build_SDQH0 diagonal (s):    0.001329
build_SDQH0 timing [translation, transform, screening] (s):    0.026332    0.003966    0.000381
build_SDQH0 diagonal (s):    0.001309
build_SDQH0 timing [translation, transform, screening] (s):    0.026197    0.003941    0.000380
build_SDQH0 diagonal (s):    0.001364
build_SDQH0 timing [translation, transform, screening] (s):    0.026364    0.003947    0.000381
build_SDQH0 diagonal (s):    0.001362
build_SDQH0 timing [translation, transform, screening] (s):    0.026035    0.003947    0.000382
build_SDQH0 diagonal (s):    0.001465
build_SDQH0 timing [translation, transform, screening] (s):    0.025989    0.003971    0.000381
build_SDQH0 diagonal (s):    0.001364
build_SDQH0 timing [translation, transform, screening] (s):    0.026047    0.003980    0.000379
build_SDQH0 diagonal (s):    0.001338
build_SDQH0 timing [translation, transform, screening] (s):    0.025974    0.003965    0.000379
build_SDQH0 diagonal (s):    0.001333
build_SDQH0 timing [translation, transform, screening] (s):    0.026016    0.003917    0.000380
build_SDQH0 diagonal (s):    0.001303
build_SDQH0 timing [translation, transform, screening] (s):    0.026036    0.003940    0.000381
build_SDQH0 diagonal (s):    0.001290
build_SDQH0 timing [translation, transform, screening] (s):    0.025980    0.003949    0.000381
build_SDQH0 diagonal (s):    0.001295
build_SDQH0 timing [translation, transform, screening] (s):    0.026095    0.003982    0.000382
build_SDQH0 diagonal (s):    0.001287
build_SDQH0 timing [translation, transform, screening] (s):    0.025993    0.003970    0.000384
build_SDQH0 diagonal (s):    0.001303
build_SDQH0 timing [translation, transform, screening] (s):    0.026011    0.003951    0.000382
build_SDQH0 diagonal (s):    0.001299
build_SDQH0 timing [translation, transform, screening] (s):    0.026030    0.003969    0.000385
build_SDQH0 diagonal (s):    0.001302
build_SDQH0 timing [translation, transform, screening] (s):    0.026048    0.003967    0.000383
build_SDQH0 diagonal (s):    0.001293
build_SDQH0 timing [translation, transform, screening] (s):    0.026050    0.003989    0.000384
build_SDQH0 diagonal (s):    0.001299
build_SDQH0 timing [translation, transform, screening] (s):    0.025772    0.004012    0.000381
build_SDQH0 diagonal (s):    0.001281
build_SDQH0 timing [translation, transform, screening] (s):    0.026022    0.003932    0.000384
build_SDQH0 diagonal (s):    0.001288
build_SDQH0 timing [translation, transform, screening] (s):    0.025883    0.003976    0.000381
build_SDQH0 diagonal (s):    0.001308
build_SDQH0 timing [translation, transform, screening] (s):    0.026019    0.003993    0.000381
build_SDQH0 diagonal (s):    0.001290
build_SDQH0 timing [translation, transform, screening] (s):    0.025991    0.003969    0.000383
build_SDQH0 diagonal (s):    0.001292
build_SDQH0 timing [translation, transform, screening] (s):    0.026101    0.003992    0.000386
build_SDQH0 diagonal (s):    0.001287
target rmsd / Å         0.100000
unbiased initial rmsd   0.464332

iter. min.        max.        rmsd       kpush
build_SDQH0 timing [translation, transform, screening] (s):    0.026846    0.003943    0.000384
build_SDQH0 diagonal (s):    0.001283
      ----------------------------------------------------------- 
     |                   =====================                   |
     |                        A N C O P T                        |
     |                   =====================                   |
     |               Approximate Normal Coordinate               |
     |                Rational Function Optimizer                |
      ----------------------------------------------------------- 
build_SDQH0 timing [translation, transform, screening] (s):    0.026840    0.003942    0.000379
build_SDQH0 diagonal (s):    0.001298
build_SDQH0 timing [translation, transform, screening] (s):    0.026507    0.003948    0.000381
build_SDQH0 diagonal (s):    0.001306
build_SDQH0 timing [translation, transform, screening] (s):    0.026546    0.003984    0.000383
build_SDQH0 diagonal (s):    0.001297
build_SDQH0 timing [translation, transform, screening] (s):    0.026559    0.003996    0.000383
build_SDQH0 diagonal (s):    0.001289
build_SDQH0 timing [translation, transform, screening] (s):    0.026675    0.003947    0.000382
build_SDQH0 diagonal (s):    0.001290
build_SDQH0 timing [translation, transform, screening] (s):    0.026659    0.003953    0.000372
build_SDQH0 diagonal (s):    0.001304
build_SDQH0 timing [translation, transform, screening] (s):    0.025981    0.003860    0.000374
build_SDQH0 diagonal (s):    0.001614
build_SDQH0 timing [translation, transform, screening] (s):    0.026470    0.003946    0.000381
build_SDQH0 diagonal (s):    0.001296
build_SDQH0 timing [translation, transform, screening] (s):    0.026458    0.003919    0.000382
build_SDQH0 diagonal (s):    0.001235
build_SDQH0 timing [translation, transform, screening] (s):    0.026612    0.003938    0.000384
build_SDQH0 diagonal (s):    0.001280
build_SDQH0 timing [translation, transform, screening] (s):    0.026645    0.003925    0.000381
build_SDQH0 diagonal (s):    0.001302
build_SDQH0 timing [translation, transform, screening] (s):    0.026534    0.003999    0.000386
build_SDQH0 diagonal (s):    0.001339
build_SDQH0 timing [translation, transform, screening] (s):    0.026495    0.003975    0.000384
build_SDQH0 diagonal (s):    0.001315
build_SDQH0 timing [translation, transform, screening] (s):    0.026893    0.003974    0.000385
build_SDQH0 diagonal (s):    0.001330
build_SDQH0 timing [translation, transform, screening] (s):    0.026594    0.003969    0.000385
build_SDQH0 diagonal (s):    0.001316
build_SDQH0 timing [translation, transform, screening] (s):    0.026482    0.003965    0.000384
build_SDQH0 diagonal (s):    0.001326
build_SDQH0 timing [translation, transform, screening] (s):    0.026478    0.003947    0.000385
build_SDQH0 diagonal (s):    0.001324
build_SDQH0 timing [translation, transform, screening] (s):    0.026502    0.003991    0.000377
build_SDQH0 diagonal (s):    0.001357
build_SDQH0 timing [translation, transform, screening] (s):    0.026454    0.003955    0.000384
build_SDQH0 diagonal (s):    0.001350
build_SDQH0 timing [translation, transform, screening] (s):    0.026453    0.003966    0.000385
build_SDQH0 diagonal (s):    0.001311
build_SDQH0 timing [translation, transform, screening] (s):    0.026418    0.003957    0.000385
build_SDQH0 diagonal (s):    0.001361
build_SDQH0 timing [translation, transform, screening] (s):    0.026478    0.003922    0.000387
build_SDQH0 diagonal (s):    0.001332
build_SDQH0 timing [translation, transform, screening] (s):    0.026391    0.003940    0.000389
build_SDQH0 diagonal (s):    0.001305
build_SDQH0 timing [translation, transform, screening] (s):    0.026387    0.003972    0.000385
build_SDQH0 diagonal (s):    0.001319
build_SDQH0 timing [translation, transform, screening] (s):    0.026562    0.003954    0.000384
build_SDQH0 diagonal (s):    0.001417
build_SDQH0 timing [translation, transform, screening] (s):    0.026570    0.003930    0.000386
build_SDQH0 diagonal (s):    0.001298
build_SDQH0 timing [translation, transform, screening] (s):    0.026623    0.003983    0.000384
build_SDQH0 diagonal (s):    0.001325
build_SDQH0 timing [translation, transform, screening] (s):    0.026468    0.003973    0.000384
build_SDQH0 diagonal (s):    0.001404
build_SDQH0 timing [translation, transform, screening] (s):    0.026591    0.003924    0.000384
build_SDQH0 diagonal (s):    0.001321
build_SDQH0 timing [translation, transform, screening] (s):    0.026590    0.003963    0.000384
build_SDQH0 diagonal (s):    0.001438
build_SDQH0 timing [translation, transform, screening] (s):    0.026635    0.003964    0.000391
build_SDQH0 diagonal (s):    0.001332
build_SDQH0 timing [translation, transform, screening] (s):    0.026452    0.003953    0.000386
build_SDQH0 diagonal (s):    0.001341
build_SDQH0 timing [translation, transform, screening] (s):    0.026441    0.003965    0.000386
build_SDQH0 diagonal (s):    0.001329
build_SDQH0 timing [translation, transform, screening] (s):    0.026559    0.003943    0.000385
build_SDQH0 diagonal (s):    0.001331
build_SDQH0 timing [translation, transform, screening] (s):    0.026535    0.003947    0.000385
build_SDQH0 diagonal (s):    0.001313
build_SDQH0 timing [translation, transform, screening] (s):    0.026513    0.003929    0.000385
build_SDQH0 diagonal (s):    0.001326
build_SDQH0 timing [translation, transform, screening] (s):    0.026610    0.003998    0.000384
build_SDQH0 diagonal (s):    0.001427
build_SDQH0 timing [translation, transform, screening] (s):    0.026416    0.003989    0.000386
build_SDQH0 diagonal (s):    0.001337
build_SDQH0 timing [translation, transform, screening] (s):    0.026360    0.003934    0.000387
build_SDQH0 diagonal (s):    0.001309
build_SDQH0 timing [translation, transform, screening] (s):    0.026412    0.003957    0.000388
build_SDQH0 diagonal (s):    0.001348
build_SDQH0 timing [translation, transform, screening] (s):    0.026515    0.003921    0.000386
build_SDQH0 diagonal (s):    0.001308
build_SDQH0 timing [translation, transform, screening] (s):    0.026455    0.003931    0.000386
build_SDQH0 diagonal (s):    0.001319
build_SDQH0 timing [translation, transform, screening] (s):    0.026796    0.003923    0.000373
build_SDQH0 diagonal (s):    0.001327
build_SDQH0 timing [translation, transform, screening] (s):    0.026500    0.003939    0.000388
build_SDQH0 diagonal (s):    0.001293
build_SDQH0 timing [translation, transform, screening] (s):    0.026444    0.003964    0.000386
build_SDQH0 diagonal (s):    0.001322
build_SDQH0 timing [translation, transform, screening] (s):    0.026473    0.003948    0.000386
build_SDQH0 diagonal (s):    0.001315
build_SDQH0 timing [translation, transform, screening] (s):    0.026356    0.003948    0.000385
build_SDQH0 diagonal (s):    0.001405
build_SDQH0 timing [translation, transform, screening] (s):    0.026492    0.003950    0.000386
build_SDQH0 diagonal (s):    0.001332
build_SDQH0 timing [translation, transform, screening] (s):    0.026342    0.003942    0.000384
build_SDQH0 diagonal (s):    0.001337
build_SDQH0 timing [translation, transform, screening] (s):    0.026484    0.003977    0.000388
build_SDQH0 diagonal (s):    0.001402
build_SDQH0 timing [translation, transform, screening] (s):    0.026549    0.003960    0.000385
build_SDQH0 diagonal (s):    0.001481
build_SDQH0 timing [translation, transform, screening] (s):    0.026762    0.003931    0.000373
build_SDQH0 diagonal (s):    0.001388
build_SDQH0 timing [translation, transform, screening] (s):    0.026336    0.003950    0.000388
build_SDQH0 diagonal (s):    0.001314
build_SDQH0 timing [translation, transform, screening] (s):    0.026495    0.003933    0.000383
build_SDQH0 diagonal (s):    0.001303
build_SDQH0 timing [translation, transform, screening] (s):    0.026511    0.003950    0.000386
build_SDQH0 diagonal (s):    0.001405
build_SDQH0 timing [translation, transform, screening] (s):    0.026425    0.003953    0.000385
build_SDQH0 diagonal (s):    0.001294
build_SDQH0 timing [translation, transform, screening] (s):    0.026574    0.003928    0.000384
build_SDQH0 diagonal (s):    0.001348
build_SDQH0 timing [translation, transform, screening] (s):    0.026624    0.003984    0.000383
build_SDQH0 diagonal (s):    0.001296
build_SDQH0 timing [translation, transform, screening] (s):    0.027073    0.003939    0.000382
build_SDQH0 diagonal (s):    0.001334
build_SDQH0 timing [translation, transform, screening] (s):    0.026552    0.003972    0.000384
build_SDQH0 diagonal (s):    0.001335
build_SDQH0 timing [translation, transform, screening] (s):    0.026689    0.003942    0.000378
build_SDQH0 diagonal (s):    0.001338
build_SDQH0 timing [translation, transform, screening] (s):    0.026588    0.003959    0.000386
build_SDQH0 diagonal (s):    0.001455
build_SDQH0 timing [translation, transform, screening] (s):    0.026595    0.003975    0.000385
build_SDQH0 diagonal (s):    0.001342
build_SDQH0 timing [translation, transform, screening] (s):    0.026595    0.003961    0.000384
build_SDQH0 diagonal (s):    0.001479
build_SDQH0 timing [translation, transform, screening] (s):    0.026668    0.003967    0.000389
build_SDQH0 diagonal (s):    0.001370
build_SDQH0 timing [translation, transform, screening] (s):    0.026592    0.003974    0.000384
build_SDQH0 diagonal (s):    0.001353
build_SDQH0 timing [translation, transform, screening] (s):    0.026042    0.003858    0.000373
build_SDQH0 diagonal (s):    0.001319
build_SDQH0 timing [translation, transform, screening] (s):    0.026328    0.003865    0.000373
build_SDQH0 diagonal (s):    0.001403
build_SDQH0 timing [translation, transform, screening] (s):    0.025972    0.003900    0.000376
build_SDQH0 diagonal (s):    0.001320
build_SDQH0 timing [translation, transform, screening] (s):    0.026099    0.003888    0.000372
build_SDQH0 diagonal (s):    0.001288
 1    0.000000    5.136364    0.020461   -2.568182
build_SDQH0 timing [translation, transform, screening] (s):    0.026281    0.003893    0.000376
build_SDQH0 diagonal (s):    0.001301
      ----------------------------------------------------------- 
     |                   =====================                   |
     |                        A N C O P T                        |
     |                   =====================                   |
     |               Approximate Normal Coordinate               |
     |                Rational Function Optimizer                |
      ----------------------------------------------------------- 
build_SDQH0 timing [translation, transform, screening] (s):    0.026144    0.003909    0.000372
build_SDQH0 diagonal (s):    0.001423
build_SDQH0 timing [translation, transform, screening] (s):    0.026371    0.003877    0.000378
build_SDQH0 diagonal (s):    0.001347
build_SDQH0 timing [translation, transform, screening] (s):    0.026261    0.003901    0.000370
build_SDQH0 diagonal (s):    0.001423
build_SDQH0 timing [translation, transform, screening] (s):    0.026056    0.003846    0.000375
build_SDQH0 diagonal (s):    0.001353
build_SDQH0 timing [translation, transform, screening] (s):    0.025855    0.003882    0.000379
build_SDQH0 diagonal (s):    0.001284
build_SDQH0 timing [translation, transform, screening] (s):    0.025960    0.003835    0.000380
build_SDQH0 diagonal (s):    0.001372
build_SDQH0 timing [translation, transform, screening] (s):    0.025897    0.003832    0.000374
build_SDQH0 diagonal (s):    0.001313
build_SDQH0 timing [translation, transform, screening] (s):    0.025936    0.003880    0.000376
build_SDQH0 diagonal (s):    0.001335
build_SDQH0 timing [translation, transform, screening] (s):    0.026009    0.003927    0.000375
build_SDQH0 diagonal (s):    0.001411
build_SDQH0 timing [translation, transform, screening] (s):    0.025980    0.003829    0.000372
build_SDQH0 diagonal (s):    0.001327
build_SDQH0 timing [translation, transform, screening] (s):    0.026051    0.003897    0.000374
build_SDQH0 diagonal (s):    0.001311
 2    0.000000    2.568182    0.028993   -1.284091
build_SDQH0 timing [translation, transform, screening] (s):    0.026296    0.003913    0.000365
build_SDQH0 diagonal (s):    0.001212
      ----------------------------------------------------------- 
     |                   =====================                   |
     |                        A N C O P T                        |
     |                   =====================                   |
     |               Approximate Normal Coordinate               |
     |                Rational Function Optimizer                |
      ----------------------------------------------------------- 
build_SDQH0 timing [translation, transform, screening] (s):    0.026105    0.003871    0.000375
build_SDQH0 diagonal (s):    0.001321
build_SDQH0 timing [translation, transform, screening] (s):    0.025923    0.003859    0.000373
build_SDQH0 diagonal (s):    0.001311
build_SDQH0 timing [translation, transform, screening] (s):    0.025998    0.003888    0.000378
build_SDQH0 diagonal (s):    0.001313
build_SDQH0 timing [translation, transform, screening] (s):    0.026289    0.003902    0.000365
build_SDQH0 diagonal (s):    0.001328
build_SDQH0 timing [translation, transform, screening] (s):    0.025875    0.003913    0.000379
build_SDQH0 diagonal (s):    0.001330
build_SDQH0 timing [translation, transform, screening] (s):    0.025970    0.003893    0.000380
build_SDQH0 diagonal (s):    0.001303
build_SDQH0 timing [translation, transform, screening] (s):    0.026072    0.003869    0.000374
build_SDQH0 diagonal (s):    0.001340
build_SDQH0 timing [translation, transform, screening] (s):    0.026285    0.003936    0.000378
build_SDQH0 diagonal (s):    0.001422
build_SDQH0 timing [translation, transform, screening] (s):    0.023976    0.004142    0.000426
build_SDQH0 diagonal (s):    0.001248
 3    0.000000    1.284091    0.040158   -0.642045
build_SDQH0 timing [translation, transform, screening] (s):    0.024200    0.004120    0.000430
build_SDQH0 diagonal (s):    0.001087
      ----------------------------------------------------------- 
     |                   =====================                   |
     |                        A N C O P T                        |
     |                   =====================                   |
     |               Approximate Normal Coordinate               |
     |                Rational Function Optimizer                |
      ----------------------------------------------------------- 
build_SDQH0 timing [translation, transform, screening] (s):    0.023553    0.004124    0.000432
build_SDQH0 diagonal (s):    0.001183
build_SDQH0 timing [translation, transform, screening] (s):    0.023815    0.004105    0.000427
build_SDQH0 diagonal (s):    0.001184
build_SDQH0 timing [translation, transform, screening] (s):    0.023995    0.004092    0.000399
build_SDQH0 diagonal (s):    0.001256
build_SDQH0 timing [translation, transform, screening] (s):    0.023725    0.004108    0.000434
build_SDQH0 diagonal (s):    0.001283
build_SDQH0 timing [translation, transform, screening] (s):    0.023650    0.004083    0.000434
build_SDQH0 diagonal (s):    0.001212
build_SDQH0 timing [translation, transform, screening] (s):    0.023573    0.004105    0.000437
build_SDQH0 diagonal (s):    0.001236
build_SDQH0 timing [translation, transform, screening] (s):    0.023659    0.004064    0.000431
build_SDQH0 diagonal (s):    0.001111
build_SDQH0 timing [translation, transform, screening] (s):    0.019433    0.003660    0.000353
build_SDQH0 diagonal (s):    0.001018
build_SDQH0 timing [translation, transform, screening] (s):    0.019408    0.003641    0.000351
build_SDQH0 diagonal (s):    0.001092
build_SDQH0 timing [translation, transform, screening] (s):    0.019330    0.003639    0.000346
build_SDQH0 diagonal (s):    0.000856
 4    0.000000    0.642045    0.054482   -0.321023
build_SDQH0 timing [translation, transform, screening] (s):    0.019713    0.003654    0.000348
build_SDQH0 diagonal (s):    0.000927
      ----------------------------------------------------------- 
     |                   =====================                   |
     |                        A N C O P T                        |
     |                   =====================                   |
     |               Approximate Normal Coordinate               |
     |                Rational Function Optimizer                |
      ----------------------------------------------------------- 
build_SDQH0 timing [translation, transform, screening] (s):    0.019542    0.003639    0.000348
build_SDQH0 diagonal (s):    0.000863
build_SDQH0 timing [translation, transform, screening] (s):    0.019441    0.003652    0.000347
build_SDQH0 diagonal (s):    0.000964
build_SDQH0 timing [translation, transform, screening] (s):    0.019376    0.003662    0.000347
build_SDQH0 diagonal (s):    0.000874
build_SDQH0 timing [translation, transform, screening] (s):    0.019508    0.003644    0.000349
build_SDQH0 diagonal (s):    0.000982
build_SDQH0 timing [translation, transform, screening] (s):    0.019292    0.003660    0.000349
build_SDQH0 diagonal (s):    0.000888
build_SDQH0 timing [translation, transform, screening] (s):    0.019304    0.003660    0.000348
build_SDQH0 diagonal (s):    0.000868
build_SDQH0 timing [translation, transform, screening] (s):    0.019306    0.003626    0.000347
build_SDQH0 diagonal (s):    0.000862
build_SDQH0 timing [translation, transform, screening] (s):    0.019311    0.003630    0.000346
build_SDQH0 diagonal (s):    0.000856
build_SDQH0 timing [translation, transform, screening] (s):    0.019264    0.003652    0.000348
build_SDQH0 diagonal (s):    0.000866
build_SDQH0 timing [translation, transform, screening] (s):    0.019322    0.003672    0.000348
build_SDQH0 diagonal (s):    0.000997
build_SDQH0 timing [translation, transform, screening] (s):    0.019172    0.003637    0.000347
build_SDQH0 diagonal (s):    0.000862
build_SDQH0 timing [translation, transform, screening] (s):    0.019390    0.003642    0.000346
build_SDQH0 diagonal (s):    0.001009
 5    0.000000    0.321023    0.071913   -0.160511
build_SDQH0 timing [translation, transform, screening] (s):    0.019484    0.003648    0.000347
build_SDQH0 diagonal (s):    0.000889
      ----------------------------------------------------------- 
     |                   =====================                   |
     |                        A N C O P T                        |
     |                   =====================                   |
     |               Approximate Normal Coordinate               |
     |                Rational Function Optimizer                |
      ----------------------------------------------------------- 
build_SDQH0 timing [translation, transform, screening] (s):    0.019449    0.003653    0.000347
build_SDQH0 diagonal (s):    0.000879
build_SDQH0 timing [translation, transform, screening] (s):    0.019534    0.003685    0.000348
build_SDQH0 diagonal (s):    0.001037
build_SDQH0 timing [translation, transform, screening] (s):    0.019488    0.003661    0.000349
build_SDQH0 diagonal (s):    0.000987
build_SDQH0 timing [translation, transform, screening] (s):    0.019406    0.003652    0.000348
build_SDQH0 diagonal (s):    0.001016
build_SDQH0 timing [translation, transform, screening] (s):    0.019367    0.003659    0.000351
build_SDQH0 diagonal (s):    0.000929
build_SDQH0 timing [translation, transform, screening] (s):    0.019313    0.003645    0.000350
build_SDQH0 diagonal (s):    0.000895
build_SDQH0 timing [translation, transform, screening] (s):    0.019350    0.003647    0.000350
build_SDQH0 diagonal (s):    0.001047
build_SDQH0 timing [translation, transform, screening] (s):    0.019327    0.003653    0.000352
build_SDQH0 diagonal (s):    0.001089
build_SDQH0 timing [translation, transform, screening] (s):    0.019451    0.003643    0.000348
build_SDQH0 diagonal (s):    0.000911
build_SDQH0 timing [translation, transform, screening] (s):    0.019497    0.003652    0.000348
build_SDQH0 diagonal (s):    0.001057
build_SDQH0 timing [translation, transform, screening] (s):    0.019353    0.003661    0.000349
build_SDQH0 diagonal (s):    0.001048
build_SDQH0 timing [translation, transform, screening] (s):    0.019434    0.003691    0.000349
build_SDQH0 diagonal (s):    0.001050
build_SDQH0 timing [translation, transform, screening] (s):    0.019402    0.003672    0.000350
build_SDQH0 diagonal (s):    0.000990
build_SDQH0 timing [translation, transform, screening] (s):    0.019235    0.003627    0.000346
build_SDQH0 diagonal (s):    0.000851
 6    0.000000    0.160511    0.093778   -0.080256
build_SDQH0 timing [translation, transform, screening] (s):    0.019690    0.003653    0.000348
build_SDQH0 diagonal (s):    0.000895
      ----------------------------------------------------------- 
     |                   =====================                   |
     |                        A N C O P T                        |
     |                   =====================                   |
     |               Approximate Normal Coordinate               |
     |                Rational Function Optimizer                |
      ----------------------------------------------------------- 
build_SDQH0 timing [translation, transform, screening] (s):    0.019610    0.003655    0.000348
build_SDQH0 diagonal (s):    0.000886
build_SDQH0 timing [translation, transform, screening] (s):    0.019340    0.003630    0.000349
build_SDQH0 diagonal (s):    0.000856
build_SDQH0 timing [translation, transform, screening] (s):    0.019283    0.003623    0.000346
build_SDQH0 diagonal (s):    0.000858
build_SDQH0 timing [translation, transform, screening] (s):    0.019251    0.003637    0.000346
build_SDQH0 diagonal (s):    0.000863
build_SDQH0 timing [translation, transform, screening] (s):    0.019244    0.003642    0.000346
build_SDQH0 diagonal (s):    0.000857
build_SDQH0 timing [translation, transform, screening] (s):    0.019205    0.003654    0.000349
build_SDQH0 diagonal (s):    0.001071
build_SDQH0 timing [translation, transform, screening] (s):    0.019261    0.003645    0.000346
build_SDQH0 diagonal (s):    0.000863
build_SDQH0 timing [translation, transform, screening] (s):    0.019194    0.003621    0.000347
build_SDQH0 diagonal (s):    0.000865
build_SDQH0 timing [translation, transform, screening] (s):    0.019260    0.003765    0.000346
build_SDQH0 diagonal (s):    0.001080
build_SDQH0 timing [translation, transform, screening] (s):    0.019175    0.003638    0.000346
build_SDQH0 diagonal (s):    0.000860
build_SDQH0 timing [translation, transform, screening] (s):    0.019195    0.003631    0.000346
build_SDQH0 diagonal (s):    0.000863
build_SDQH0 timing [translation, transform, screening] (s):    0.019185    0.003631    0.000346
build_SDQH0 diagonal (s):    0.000857
build_SDQH0 timing [translation, transform, screening] (s):    0.019131    0.003622    0.000349
build_SDQH0 diagonal (s):    0.000970
build_SDQH0 timing [translation, transform, screening] (s):    0.019194    0.003636    0.000347
build_SDQH0 diagonal (s):    0.000871
build_SDQH0 timing [translation, transform, screening] (s):    0.019191    0.003624    0.000346
build_SDQH0 diagonal (s):    0.000989
build_SDQH0 timing [translation, transform, screening] (s):    0.019352    0.003644    0.000348
build_SDQH0 diagonal (s):    0.000866
build_SDQH0 timing [translation, transform, screening] (s):    0.019219    0.003624    0.000347
build_SDQH0 diagonal (s):    0.000858
 7    0.000000    0.080256    0.123783   -0.040128
build_SDQH0 timing [translation, transform, screening] (s):    0.019442    0.003641    0.000346
build_SDQH0 diagonal (s):    0.000852
      ----------------------------------------------------------- 
     |                   =====================                   |
     |                        A N C O P T                        |
     |                   =====================                   |
     |               Approximate Normal Coordinate               |
     |                Rational Function Optimizer                |
      ----------------------------------------------------------- 
build_SDQH0 timing [translation, transform, screening] (s):    0.019548    0.003641    0.000349
build_SDQH0 diagonal (s):    0.000883
build_SDQH0 timing [translation, transform, screening] (s):    0.019439    0.003640    0.000350
build_SDQH0 diagonal (s):    0.000922
build_SDQH0 timing [translation, transform, screening] (s):    0.019485    0.003665    0.000353
build_SDQH0 diagonal (s):    0.001025
build_SDQH0 timing [translation, transform, screening] (s):    0.019314    0.003640    0.000348
build_SDQH0 diagonal (s):    0.000966
build_SDQH0 timing [translation, transform, screening] (s):    0.019433    0.003666    0.000350
build_SDQH0 diagonal (s):    0.000914
build_SDQH0 timing [translation, transform, screening] (s):    0.019306    0.003656    0.000348
build_SDQH0 diagonal (s):    0.001060
build_SDQH0 timing [translation, transform, screening] (s):    0.019290    0.003655    0.000347
build_SDQH0 diagonal (s):    0.000914
build_SDQH0 timing [translation, transform, screening] (s):    0.021284    0.003792    0.000362
build_SDQH0 diagonal (s):    0.001095
build_SDQH0 timing [translation, transform, screening] (s):    0.021333    0.003771    0.000365
build_SDQH0 diagonal (s):    0.001080
build_SDQH0 timing [translation, transform, screening] (s):    0.021238    0.003783    0.000361
build_SDQH0 diagonal (s):    0.001145
build_SDQH0 timing [translation, transform, screening] (s):    0.021494    0.003792    0.000363
build_SDQH0 diagonal (s):    0.001051
build_SDQH0 timing [translation, transform, screening] (s):    0.021240    0.003787    0.000360
build_SDQH0 diagonal (s):    0.001044
build_SDQH0 timing [translation, transform, screening] (s):    0.021293    0.003785    0.000363
build_SDQH0 diagonal (s):    0.001140
build_SDQH0 timing [translation, transform, screening] (s):    0.021295    0.003790    0.000363
build_SDQH0 diagonal (s):    0.001232
build_SDQH0 timing [translation, transform, screening] (s):    0.021292    0.003755    0.000363
build_SDQH0 diagonal (s):    0.000968
 8    0.040128    0.080256    0.104876   -0.060192
build_SDQH0 timing [translation, transform, screening] (s):    0.021517    0.003779    0.000362
build_SDQH0 diagonal (s):    0.001090
      ----------------------------------------------------------- 
     |                   =====================                   |
     |                        A N C O P T                        |
     |                   =====================                   |
     |               Approximate Normal Coordinate               |
     |                Rational Function Optimizer                |
      ----------------------------------------------------------- 
build_SDQH0 timing [translation, transform, screening] (s):    0.021418    0.003773    0.000362
build_SDQH0 diagonal (s):    0.001020
build_SDQH0 timing [translation, transform, screening] (s):    0.021358    0.003778    0.000360
build_SDQH0 diagonal (s):    0.001107
build_SDQH0 timing [translation, transform, screening] (s):    0.021449    0.003767    0.000364
build_SDQH0 diagonal (s):    0.001041
build_SDQH0 timing [translation, transform, screening] (s):    0.021356    0.003791    0.000360
build_SDQH0 diagonal (s):    0.001097
build_SDQH0 timing [translation, transform, screening] (s):    0.021250    0.003769    0.000362
build_SDQH0 diagonal (s):    0.000998
build_SDQH0 timing [translation, transform, screening] (s):    0.021359    0.003785    0.000361
build_SDQH0 diagonal (s):    0.001074
build_SDQH0 timing [translation, transform, screening] (s):    0.021410    0.003789    0.000362
build_SDQH0 diagonal (s):    0.001088
build_SDQH0 timing [translation, transform, screening] (s):    0.021388    0.003783    0.000360
build_SDQH0 diagonal (s):    0.001211
build_SDQH0 timing [translation, transform, screening] (s):    0.021299    0.003793    0.000362
build_SDQH0 diagonal (s):    0.001056
build_SDQH0 timing [translation, transform, screening] (s):    0.022965    0.003813    0.000364
build_SDQH0 diagonal (s):    0.001178
build_SDQH0 timing [translation, transform, screening] (s):    0.022991    0.003825    0.000365
build_SDQH0 diagonal (s):    0.001137
build_SDQH0 timing [translation, transform, screening] (s):    0.023097    0.003788    0.000365
build_SDQH0 diagonal (s):    0.001059
build_SDQH0 timing [translation, transform, screening] (s):    0.023090    0.003839    0.000364
build_SDQH0 diagonal (s):    0.001218
build_SDQH0 timing [translation, transform, screening] (s):    0.022835    0.003823    0.000366
build_SDQH0 diagonal (s):    0.001059
 9    0.060192    0.080256    0.098638   -0.070224
build_SDQH0 timing [translation, transform, screening] (s):    0.023180    0.003787    0.000365
build_SDQH0 diagonal (s):    0.001192
      ----------------------------------------------------------- 
     |                   =====================                   |
     |                        A N C O P T                        |
     |                   =====================                   |
     |               Approximate Normal Coordinate               |
     |                Rational Function Optimizer                |
      ----------------------------------------------------------- 
build_SDQH0 timing [translation, transform, screening] (s):    0.023148    0.003819    0.000365
build_SDQH0 diagonal (s):    0.001074
build_SDQH0 timing [translation, transform, screening] (s):    0.023404    0.003912    0.000369
build_SDQH0 diagonal (s):    0.001095
build_SDQH0 timing [translation, transform, screening] (s):    0.022939    0.003798    0.000366
build_SDQH0 diagonal (s):    0.001139
build_SDQH0 timing [translation, transform, screening] (s):    0.023112    0.003813    0.000362
build_SDQH0 diagonal (s):    0.001157
build_SDQH0 timing [translation, transform, screening] (s):    0.022813    0.003818    0.000366
build_SDQH0 diagonal (s):    0.001155
build_SDQH0 timing [translation, transform, screening] (s):    0.022809    0.003820    0.000367
build_SDQH0 diagonal (s):    0.001094
build_SDQH0 timing [translation, transform, screening] (s):    0.022845    0.003807    0.000366
build_SDQH0 diagonal (s):    0.001172
build_SDQH0 timing [translation, transform, screening] (s):    0.023124    0.003763    0.000363
build_SDQH0 diagonal (s):    0.001095
build_SDQH0 timing [translation, transform, screening] (s):    0.021705    0.003791    0.000359
build_SDQH0 diagonal (s):    0.001108
build_SDQH0 timing [translation, transform, screening] (s):    0.021456    0.003786    0.000363
build_SDQH0 diagonal (s):    0.001214
build_SDQH0 timing [translation, transform, screening] (s):    0.021375    0.003786    0.000362
build_SDQH0 diagonal (s):    0.001057
build_SDQH0 timing [translation, transform, screening] (s):    0.021441    0.003785    0.000362
build_SDQH0 diagonal (s):    0.001086
build_SDQH0 timing [translation, transform, screening] (s):    0.021524    0.003803    0.000363
build_SDQH0 diagonal (s):    0.001107
build_SDQH0 timing [translation, transform, screening] (s):    0.021429    0.003770    0.000363
build_SDQH0 diagonal (s):    0.000970
build_SDQH0 timing [translation, transform, screening] (s):    0.021513    0.003784    0.000362
build_SDQH0 diagonal (s):    0.000960
10    0.060192    0.070224    0.101678   -0.065208
final kpush: -0.065208
           -------------------------------------------------
          |            Biased Numerical Hessian             |
           -------------------------------------------------
build_SDQH0 timing [translation, transform, screening] (s):    0.021235    0.003769    0.000358
build_SDQH0 diagonal (s):    0.001022
kpush                :  -0.06521
alpha                :   1.00000
step length          :   0.00500
SCC accuracy         :   0.30000
Hessian scale factor :   1.00000
frozen atoms in %    :   0.00000    0
RMS gradient         :   0.00064
build_SDQH0 timing [translation, transform, screening] (s):    0.019678    0.003220    0.000355
build_SDQH0 diagonal (s):    0.000858
build_SDQH0 timing [translation, transform, screening] (s):    0.020057    0.003221    0.000348
build_SDQH0 diagonal (s):    0.000859
build_SDQH0 timing [translation, transform, screening] (s):    0.020074    0.003228    0.000350
build_SDQH0 diagonal (s):    0.000885
build_SDQH0 timing [translation, transform, screening] (s):    0.033126    0.003740    0.000386
build_SDQH0 diagonal (s):    0.001617
build_SDQH0 timing [translation, transform, screening] (s):    0.020002    0.003221    0.000351
build_SDQH0 diagonal (s):    0.000851
build_SDQH0 timing [translation, transform, screening] (s):    0.019892    0.003228    0.000350
build_SDQH0 diagonal (s):    0.000879
build_SDQH0 timing [translation, transform, screening] (s):    0.020048    0.003223    0.000348
build_SDQH0 diagonal (s):    0.000887
build_SDQH0 timing [translation, transform, screening] (s):    0.020308    0.003611    0.000351
build_SDQH0 diagonal (s):    0.000846
build_SDQH0 timing [translation, transform, screening] (s):    0.019837    0.003220    0.000349
build_SDQH0 diagonal (s):    0.000831
build_SDQH0 timing [translation, transform, screening] (s):    0.020055    0.003226    0.000349
build_SDQH0 diagonal (s):    0.000881
build_SDQH0 timing [translation, transform, screening] (s):    0.019800    0.003232    0.000351
build_SDQH0 diagonal (s):    0.000893
build_SDQH0 timing [translation, transform, screening] (s):    0.020461    0.003605    0.000350
build_SDQH0 diagonal (s):    0.000858
build_SDQH0 timing [translation, transform, screening] (s):    0.020021    0.003222    0.000349
build_SDQH0 diagonal (s):    0.000858
build_SDQH0 timing [translation, transform, screening] (s):    0.020465    0.003599    0.000350
build_SDQH0 diagonal (s):    0.000855
build_SDQH0 timing [translation, transform, screening] (s):    0.020055    0.003224    0.000350
build_SDQH0 diagonal (s):    0.000893
build_SDQH0 timing [translation, transform, screening] (s):    0.019783    0.003223    0.000354
build_SDQH0 diagonal (s):    0.000894
build_SDQH0 timing [translation, transform, screening] (s):    0.019831    0.003221    0.000349
build_SDQH0 diagonal (s):    0.000846
build_SDQH0 timing [translation, transform, screening] (s):    0.020448    0.003599    0.000349
build_SDQH0 diagonal (s):    0.000848
build_SDQH0 timing [translation, transform, screening] (s):    0.020014    0.003225    0.000350
build_SDQH0 diagonal (s):    0.000878
build_SDQH0 timing [translation, transform, screening] (s):    0.019895    0.003223    0.000349
build_SDQH0 diagonal (s):    0.000847
build_SDQH0 timing [translation, transform, screening] (s):    0.019814    0.003221    0.000349
build_SDQH0 diagonal (s):    0.000877
build_SDQH0 timing [translation, transform, screening] (s):    0.020445    0.003585    0.000350
build_SDQH0 diagonal (s):    0.000860
build_SDQH0 timing [translation, transform, screening] (s):    0.020076    0.003221    0.000349
build_SDQH0 diagonal (s):    0.000873
build_SDQH0 timing [translation, transform, screening] (s):    0.019845    0.003227    0.000350
build_SDQH0 diagonal (s):    0.000874
estimated CPU  time      3.45 min
estimated wall time      0.86 min
build_SDQH0 timing [translation, transform, screening] (s):    0.019850    0.003224    0.000349
build_SDQH0 diagonal (s):    0.000871
build_SDQH0 timing [translation, transform, screening] (s):    0.020461    0.003598    0.000349
build_SDQH0 diagonal (s):    0.000873
build_SDQH0 timing [translation, transform, screening] (s):    0.020013    0.003221    0.000349
build_SDQH0 diagonal (s):    0.000896
build_SDQH0 timing [translation, transform, screening] (s):    0.019842    0.003215    0.000348
build_SDQH0 diagonal (s):    0.000884
build_SDQH0 timing [translation, transform, screening] (s):    0.020423    0.003586    0.000349
build_SDQH0 diagonal (s):    0.000840
build_SDQH0 timing [translation, transform, screening] (s):    0.020034    0.003224    0.000351
build_SDQH0 diagonal (s):    0.000867
build_SDQH0 timing [translation, transform, screening] (s):    0.020066    0.003223    0.000352
build_SDQH0 diagonal (s):    0.000859
build_SDQH0 timing [translation, transform, screening] (s):    0.019639    0.003225    0.000349
build_SDQH0 diagonal (s):    0.000852
build_SDQH0 timing [translation, transform, screening] (s):    0.020444    0.003607    0.000348
build_SDQH0 diagonal (s):    0.000844
build_SDQH0 timing [translation, transform, screening] (s):    0.020062    0.003220    0.000349
build_SDQH0 diagonal (s):    0.000862
build_SDQH0 timing [translation, transform, screening] (s):    0.019867    0.003227    0.000350
build_SDQH0 diagonal (s):    0.000897
build_SDQH0 timing [translation, transform, screening] (s):    0.019672    0.003219    0.000349
build_SDQH0 diagonal (s):    0.000849
build_SDQH0 timing [translation, transform, screening] (s):    0.020247    0.003604    0.000349
build_SDQH0 diagonal (s):    0.000886
build_SDQH0 timing [translation, transform, screening] (s):    0.020053    0.003220    0.000349
build_SDQH0 diagonal (s):    0.000884
build_SDQH0 timing [translation, transform, screening] (s):    0.019964    0.003224    0.000349
build_SDQH0 diagonal (s):    0.000888
build_SDQH0 timing [translation, transform, screening] (s):    0.019687    0.003222    0.000351
build_SDQH0 diagonal (s):    0.000881
build_SDQH0 timing [translation, transform, screening] (s):    0.020239    0.003593    0.000351
build_SDQH0 diagonal (s):    0.000877
build_SDQH0 timing [translation, transform, screening] (s):    0.020072    0.003233    0.000349
build_SDQH0 diagonal (s):    0.000885
build_SDQH0 timing [translation, transform, screening] (s):    0.020048    0.003222    0.000349
build_SDQH0 diagonal (s):    0.000838
build_SDQH0 timing [translation, transform, screening] (s):    0.019714    0.003225    0.000350
build_SDQH0 diagonal (s):    0.000860
build_SDQH0 timing [translation, transform, screening] (s):    0.020227    0.003572    0.000350
build_SDQH0 diagonal (s):    0.000855
build_SDQH0 timing [translation, transform, screening] (s):    0.020072    0.003226    0.000350
build_SDQH0 diagonal (s):    0.000893
build_SDQH0 timing [translation, transform, screening] (s):    0.020084    0.003222    0.000349
build_SDQH0 diagonal (s):    0.000898
build_SDQH0 timing [translation, transform, screening] (s):    0.020211    0.003578    0.000352
build_SDQH0 diagonal (s):    0.000833
build_SDQH0 timing [translation, transform, screening] (s):    0.019698    0.003233    0.000349
build_SDQH0 diagonal (s):    0.000872
build_SDQH0 timing [translation, transform, screening] (s):    0.020048    0.003227    0.000349
build_SDQH0 diagonal (s):    0.000841
build_SDQH0 timing [translation, transform, screening] (s):    0.020074    0.003223    0.000349
build_SDQH0 diagonal (s):    0.000882
build_SDQH0 timing [translation, transform, screening] (s):    0.020197    0.003582    0.000348
build_SDQH0 diagonal (s):    0.000831
build_SDQH0 timing [translation, transform, screening] (s):    0.019835    0.003221    0.000349
build_SDQH0 diagonal (s):    0.000907
build_SDQH0 timing [translation, transform, screening] (s):    0.020055    0.003225    0.000351
build_SDQH0 diagonal (s):    0.000863
build_SDQH0 timing [translation, transform, screening] (s):    0.020097    0.003223    0.000349
build_SDQH0 diagonal (s):    0.000847
build_SDQH0 timing [translation, transform, screening] (s):    0.020214    0.003568    0.000349
build_SDQH0 diagonal (s):    0.000829
build_SDQH0 timing [translation, transform, screening] (s):    0.020025    0.003223    0.000351
build_SDQH0 diagonal (s):    0.000860
build_SDQH0 timing [translation, transform, screening] (s):    0.019890    0.003223    0.000351
build_SDQH0 diagonal (s):    0.000873
build_SDQH0 timing [translation, transform, screening] (s):    0.020052    0.003221    0.000348
build_SDQH0 diagonal (s):    0.000861
build_SDQH0 timing [translation, transform, screening] (s):    0.020251    0.003583    0.000349
build_SDQH0 diagonal (s):    0.000834
build_SDQH0 timing [translation, transform, screening] (s):    0.020059    0.003225    0.000350
build_SDQH0 diagonal (s):    0.000882
build_SDQH0 timing [translation, transform, screening] (s):    0.019645    0.003227    0.000351
build_SDQH0 diagonal (s):    0.000854
build_SDQH0 timing [translation, transform, screening] (s):    0.020033    0.003219    0.000349
build_SDQH0 diagonal (s):    0.000891
build_SDQH0 timing [translation, transform, screening] (s):    0.020268    0.003592    0.000348
build_SDQH0 diagonal (s):    0.000846
build_SDQH0 timing [translation, transform, screening] (s):    0.020055    0.003221    0.000350
build_SDQH0 diagonal (s):    0.000879
build_SDQH0 timing [translation, transform, screening] (s):    0.019909    0.003226    0.000348
build_SDQH0 diagonal (s):    0.000884
build_SDQH0 timing [translation, transform, screening] (s):    0.020058    0.003223    0.000348
build_SDQH0 diagonal (s):    0.000853
build_SDQH0 timing [translation, transform, screening] (s):    0.020240    0.003593    0.000349
build_SDQH0 diagonal (s):    0.000851
build_SDQH0 timing [translation, transform, screening] (s):    0.020083    0.003222    0.000350
build_SDQH0 diagonal (s):    0.000868
build_SDQH0 timing [translation, transform, screening] (s):    0.019863    0.003221    0.000349
build_SDQH0 diagonal (s):    0.000866
build_SDQH0 timing [translation, transform, screening] (s):    0.020103    0.003219    0.000349
build_SDQH0 diagonal (s):    0.000860
build_SDQH0 timing [translation, transform, screening] (s):    0.020048    0.003220    0.000350
build_SDQH0 diagonal (s):    0.000837
build_SDQH0 timing [translation, transform, screening] (s):    0.020271    0.003610    0.000351
build_SDQH0 diagonal (s):    0.000869
build_SDQH0 timing [translation, transform, screening] (s):    0.019868    0.003227    0.000349
build_SDQH0 diagonal (s):    0.000886
build_SDQH0 timing [translation, transform, screening] (s):    0.020087    0.003221    0.000352
build_SDQH0 diagonal (s):    0.000885
build_SDQH0 timing [translation, transform, screening] (s):    0.019990    0.003222    0.000351
build_SDQH0 diagonal (s):    0.000858
build_SDQH0 timing [translation, transform, screening] (s):    0.020267    0.003620    0.000350
build_SDQH0 diagonal (s):    0.000848
build_SDQH0 timing [translation, transform, screening] (s):    0.019849    0.003226    0.000349
build_SDQH0 diagonal (s):    0.000887
build_SDQH0 timing [translation, transform, screening] (s):    0.020043    0.003219    0.000349
build_SDQH0 diagonal (s):    0.000901
build_SDQH0 timing [translation, transform, screening] (s):    0.020037    0.003225    0.000350
build_SDQH0 diagonal (s):    0.000883
build_SDQH0 timing [translation, transform, screening] (s):    0.020364    0.003583    0.000350
build_SDQH0 diagonal (s):    0.000873
build_SDQH0 timing [translation, transform, screening] (s):    0.019901    0.003227    0.000350
build_SDQH0 diagonal (s):    0.000866
build_SDQH0 timing [translation, transform, screening] (s):    0.020056    0.003227    0.000350
build_SDQH0 diagonal (s):    0.000893
build_SDQH0 timing [translation, transform, screening] (s):    0.020428    0.003594    0.000351
build_SDQH0 diagonal (s):    0.000856
build_SDQH0 timing [translation, transform, screening] (s):    0.019931    0.003226    0.000351
build_SDQH0 diagonal (s):    0.000879
build_SDQH0 timing [translation, transform, screening] (s):    0.019829    0.003230    0.000348
build_SDQH0 diagonal (s):    0.000861
build_SDQH0 timing [translation, transform, screening] (s):    0.020216    0.003607    0.000348
build_SDQH0 diagonal (s):    0.000847
build_SDQH0 timing [translation, transform, screening] (s):    0.020050    0.003231    0.000352
build_SDQH0 diagonal (s):    0.000905
build_SDQH0 timing [translation, transform, screening] (s):    0.020055    0.003220    0.000350
build_SDQH0 diagonal (s):    0.000895
build_SDQH0 timing [translation, transform, screening] (s):    0.019891    0.003223    0.000350
build_SDQH0 diagonal (s):    0.000903
build_SDQH0 timing [translation, transform, screening] (s):    0.020032    0.003222    0.000348
build_SDQH0 diagonal (s):    0.000862
build_SDQH0 timing [translation, transform, screening] (s):    0.020252    0.003609    0.000348
build_SDQH0 diagonal (s):    0.000836
build_SDQH0 timing [translation, transform, screening] (s):    0.020056    0.003223    0.000349
build_SDQH0 diagonal (s):    0.000869
build_SDQH0 timing [translation, transform, screening] (s):    0.019892    0.003222    0.000349
build_SDQH0 diagonal (s):    0.000871
build_SDQH0 timing [translation, transform, screening] (s):    0.020038    0.003220    0.000348
build_SDQH0 diagonal (s):    0.000839
build_SDQH0 timing [translation, transform, screening] (s):    0.020243    0.003640    0.000349
build_SDQH0 diagonal (s):    0.000888
build_SDQH0 timing [translation, transform, screening] (s):    0.020041    0.003218    0.000350
build_SDQH0 diagonal (s):    0.000848
build_SDQH0 timing [translation, transform, screening] (s):    0.019876    0.003224    0.000349
build_SDQH0 diagonal (s):    0.000899
build_SDQH0 timing [translation, transform, screening] (s):    0.020054    0.003228    0.000349
build_SDQH0 diagonal (s):    0.000867
build_SDQH0 timing [translation, transform, screening] (s):    0.020296    0.003641    0.000348
build_SDQH0 diagonal (s):    0.000827
build_SDQH0 timing [translation, transform, screening] (s):    0.020045    0.003226    0.000350
build_SDQH0 diagonal (s):    0.000892
build_SDQH0 timing [translation, transform, screening] (s):    0.019889    0.003226    0.000349
build_SDQH0 diagonal (s):    0.000895
build_SDQH0 timing [translation, transform, screening] (s):    0.020067    0.003224    0.000349
build_SDQH0 diagonal (s):    0.000872
build_SDQH0 timing [translation, transform, screening] (s):    0.020282    0.003640    0.000349
build_SDQH0 diagonal (s):    0.000841
build_SDQH0 timing [translation, transform, screening] (s):    0.019853    0.003224    0.000350
build_SDQH0 diagonal (s):    0.000856
build_SDQH0 timing [translation, transform, screening] (s):    0.019845    0.003224    0.000349
build_SDQH0 diagonal (s):    0.000896
build_SDQH0 timing [translation, transform, screening] (s):    0.020046    0.003220    0.000349
build_SDQH0 diagonal (s):    0.000845
build_SDQH0 timing [translation, transform, screening] (s):    0.019911    0.003234    0.000350
build_SDQH0 diagonal (s):    0.000889
build_SDQH0 timing [translation, transform, screening] (s):    0.020311    0.003650    0.000350
build_SDQH0 diagonal (s):    0.000846
build_SDQH0 timing [translation, transform, screening] (s):    0.019692    0.003233    0.000350
build_SDQH0 diagonal (s):    0.000892
build_SDQH0 timing [translation, transform, screening] (s):    0.020053    0.003222    0.000348
build_SDQH0 diagonal (s):    0.000890
build_SDQH0 timing [translation, transform, screening] (s):    0.020088    0.003226    0.000350
build_SDQH0 diagonal (s):    0.000864
build_SDQH0 timing [translation, transform, screening] (s):    0.020293    0.003644    0.000352
build_SDQH0 diagonal (s):    0.000837
build_SDQH0 timing [translation, transform, screening] (s):    0.019885    0.003224    0.000353
build_SDQH0 diagonal (s):    0.000884
build_SDQH0 timing [translation, transform, screening] (s):    0.020096    0.003228    0.000350
build_SDQH0 diagonal (s):    0.000856
build_SDQH0 timing [translation, transform, screening] (s):    0.020101    0.003221    0.000350
build_SDQH0 diagonal (s):    0.000848
build_SDQH0 timing [translation, transform, screening] (s):    0.020523    0.003655    0.000350
build_SDQH0 diagonal (s):    0.000840
build_SDQH0 timing [translation, transform, screening] (s):    0.019867    0.003226    0.000350
build_SDQH0 diagonal (s):    0.000900
build_SDQH0 timing [translation, transform, screening] (s):    0.020088    0.003223    0.000351
build_SDQH0 diagonal (s):    0.000849
build_SDQH0 timing [translation, transform, screening] (s):    0.020059    0.003216    0.000351
build_SDQH0 diagonal (s):    0.000838
build_SDQH0 timing [translation, transform, screening] (s):    0.020534    0.003660    0.000350
build_SDQH0 diagonal (s):    0.000841
build_SDQH0 timing [translation, transform, screening] (s):    0.019907    0.003225    0.000349
build_SDQH0 diagonal (s):    0.000895
build_SDQH0 timing [translation, transform, screening] (s):    0.020094    0.003227    0.000350
build_SDQH0 diagonal (s):    0.000863
build_SDQH0 timing [translation, transform, screening] (s):    0.020055    0.003225    0.000349
build_SDQH0 diagonal (s):    0.000868
build_SDQH0 timing [translation, transform, screening] (s):    0.020501    0.003649    0.000349
build_SDQH0 diagonal (s):    0.000861
build_SDQH0 timing [translation, transform, screening] (s):    0.019911    0.003228    0.000353
build_SDQH0 diagonal (s):    0.000856
build_SDQH0 timing [translation, transform, screening] (s):    0.020055    0.003223    0.000348
build_SDQH0 diagonal (s):    0.000859
build_SDQH0 timing [translation, transform, screening] (s):    0.020049    0.003223    0.000350
build_SDQH0 diagonal (s):    0.000883
build_SDQH0 timing [translation, transform, screening] (s):    0.020504    0.003645    0.000349
build_SDQH0 diagonal (s):    0.000864
build_SDQH0 timing [translation, transform, screening] (s):    0.019666    0.003221    0.000352
build_SDQH0 diagonal (s):    0.000832
build_SDQH0 timing [translation, transform, screening] (s):    0.020054    0.003223    0.000350
build_SDQH0 diagonal (s):    0.000866
build_SDQH0 timing [translation, transform, screening] (s):    0.020092    0.003226    0.000351
build_SDQH0 diagonal (s):    0.000929
build_SDQH0 timing [translation, transform, screening] (s):    0.020480    0.003648    0.000349
build_SDQH0 diagonal (s):    0.000858
build_SDQH0 timing [translation, transform, screening] (s):    0.019696    0.003226    0.000351
build_SDQH0 diagonal (s):    0.000853
build_SDQH0 timing [translation, transform, screening] (s):    0.020049    0.003237    0.000349
build_SDQH0 diagonal (s):    0.000913
build_SDQH0 timing [translation, transform, screening] (s):    0.020066    0.003223    0.000349
build_SDQH0 diagonal (s):    0.000866
build_SDQH0 timing [translation, transform, screening] (s):    0.020529    0.003643    0.000349
build_SDQH0 diagonal (s):    0.000842
build_SDQH0 timing [translation, transform, screening] (s):    0.019667    0.003230    0.000349
build_SDQH0 diagonal (s):    0.000847
build_SDQH0 timing [translation, transform, screening] (s):    0.019971    0.003224    0.000349
build_SDQH0 diagonal (s):    0.000854
build_SDQH0 timing [translation, transform, screening] (s):    0.020418    0.003647    0.000350
build_SDQH0 diagonal (s):    0.000848
build_SDQH0 timing [translation, transform, screening] (s):    0.020045    0.003226    0.000349
build_SDQH0 diagonal (s):    0.000881
build_SDQH0 timing [translation, transform, screening] (s):    0.020496    0.003643    0.000352
build_SDQH0 diagonal (s):    0.000857
build_SDQH0 timing [translation, transform, screening] (s):    0.020053    0.003223    0.000349
build_SDQH0 diagonal (s):    0.000881
build_SDQH0 timing [translation, transform, screening] (s):    0.019709    0.003221    0.000350
build_SDQH0 diagonal (s):    0.000857
build_SDQH0 timing [translation, transform, screening] (s):    0.020078    0.003231    0.000350
build_SDQH0 diagonal (s):    0.000876
build_SDQH0 timing [translation, transform, screening] (s):    0.020474    0.003638    0.000348
build_SDQH0 diagonal (s):    0.000848
build_SDQH0 timing [translation, transform, screening] (s):    0.020075    0.003226    0.000350
build_SDQH0 diagonal (s):    0.000898
build_SDQH0 timing [translation, transform, screening] (s):    0.019893    0.003221    0.000349
build_SDQH0 diagonal (s):    0.000867
build_SDQH0 timing [translation, transform, screening] (s):    0.019948    0.003225    0.000350
build_SDQH0 diagonal (s):    0.000895
build_SDQH0 timing [translation, transform, screening] (s):    0.020514    0.003649    0.000348
build_SDQH0 diagonal (s):    0.000849
build_SDQH0 timing [translation, transform, screening] (s):    0.020083    0.003222    0.000351
build_SDQH0 diagonal (s):    0.000848
build_SDQH0 timing [translation, transform, screening] (s):    0.020092    0.003228    0.000350
build_SDQH0 diagonal (s):    0.000885
build_SDQH0 timing [translation, transform, screening] (s):    0.019905    0.003226    0.000350
build_SDQH0 diagonal (s):    0.000857
build_SDQH0 timing [translation, transform, screening] (s):    0.020512    0.003652    0.000349
build_SDQH0 diagonal (s):    0.000857
build_SDQH0 timing [translation, transform, screening] (s):    0.020057    0.003230    0.000352
build_SDQH0 diagonal (s):    0.000882
build_SDQH0 timing [translation, transform, screening] (s):    0.019957    0.003224    0.000350
build_SDQH0 diagonal (s):    0.000869
build_SDQH0 timing [translation, transform, screening] (s):    0.019668    0.003230    0.000350
build_SDQH0 diagonal (s):    0.000904
build_SDQH0 timing [translation, transform, screening] (s):    0.020444    0.003641    0.000349
build_SDQH0 diagonal (s):    0.000833
build_SDQH0 timing [translation, transform, screening] (s):    0.020034    0.003222    0.000351
build_SDQH0 diagonal (s):    0.000896
build_SDQH0 timing [translation, transform, screening] (s):    0.019866    0.003227    0.000351
build_SDQH0 diagonal (s):    0.000860
build_SDQH0 timing [translation, transform, screening] (s):    0.019799    0.003224    0.000352
build_SDQH0 diagonal (s):    0.000876
build_SDQH0 timing [translation, transform, screening] (s):    0.020510    0.003650    0.000349
build_SDQH0 diagonal (s):    0.000850
build_SDQH0 timing [translation, transform, screening] (s):    0.019691    0.003221    0.000353
build_SDQH0 diagonal (s):    0.000874
build_SDQH0 timing [translation, transform, screening] (s):    0.019940    0.003230    0.000350
build_SDQH0 diagonal (s):    0.000905
build_SDQH0 timing [translation, transform, screening] (s):    0.019881    0.003227    0.000350
build_SDQH0 diagonal (s):    0.000891
build_SDQH0 timing [translation, transform, screening] (s):    0.020518    0.003644    0.000349
build_SDQH0 diagonal (s):    0.000847
build_SDQH0 timing [translation, transform, screening] (s):    0.019772    0.003240    0.000350
build_SDQH0 diagonal (s):    0.000891
build_SDQH0 timing [translation, transform, screening] (s):    0.020057    0.003226    0.000349
build_SDQH0 diagonal (s):    0.000882
build_SDQH0 timing [translation, transform, screening] (s):    0.019973    0.003221    0.000349
build_SDQH0 diagonal (s):    0.000877
build_SDQH0 timing [translation, transform, screening] (s):    0.020482    0.003647    0.000351
build_SDQH0 diagonal (s):    0.000842
build_SDQH0 timing [translation, transform, screening] (s):    0.019857    0.003232    0.000350
build_SDQH0 diagonal (s):    0.000871
build_SDQH0 timing [translation, transform, screening] (s):    0.020078    0.003227    0.000349
build_SDQH0 diagonal (s):    0.000876
build_SDQH0 timing [translation, transform, screening] (s):    0.020074    0.003219    0.000349
build_SDQH0 diagonal (s):    0.000883
build_SDQH0 timing [translation, transform, screening] (s):    0.020486    0.003643    0.000349
build_SDQH0 diagonal (s):    0.000860
build_SDQH0 timing [translation, transform, screening] (s):    0.020051    0.003223    0.000348
build_SDQH0 diagonal (s):    0.000853
build_SDQH0 timing [translation, transform, screening] (s):    0.019695    0.003227    0.000353
build_SDQH0 diagonal (s):    0.000870
build_SDQH0 timing [translation, transform, screening] (s):    0.020075    0.003226    0.000350
build_SDQH0 diagonal (s):    0.000883
build_SDQH0 timing [translation, transform, screening] (s):    0.020462    0.003643    0.000349
build_SDQH0 diagonal (s):    0.000862
build_SDQH0 timing [translation, transform, screening] (s):    0.020065    0.003221    0.000349
build_SDQH0 diagonal (s):    0.000870
build_SDQH0 timing [translation, transform, screening] (s):    0.019701    0.003231    0.000353
build_SDQH0 diagonal (s):    0.000901
build_SDQH0 timing [translation, transform, screening] (s):    0.020115    0.003225    0.000350
build_SDQH0 diagonal (s):    0.000853
build_SDQH0 timing [translation, transform, screening] (s):    0.020305    0.003650    0.000349
build_SDQH0 diagonal (s):    0.000855
build_SDQH0 timing [translation, transform, screening] (s):    0.020066    0.003224    0.000352
build_SDQH0 diagonal (s):    0.000890
build_SDQH0 timing [translation, transform, screening] (s):    0.019669    0.003222    0.000355
build_SDQH0 diagonal (s):    0.000856
build_SDQH0 timing [translation, transform, screening] (s):    0.020077    0.003235    0.000352
build_SDQH0 diagonal (s):    0.000906
build_SDQH0 timing [translation, transform, screening] (s):    0.020290    0.003649    0.000349
build_SDQH0 diagonal (s):    0.000841
build_SDQH0 timing [translation, transform, screening] (s):    0.020041    0.003227    0.000349
build_SDQH0 diagonal (s):    0.000884
build_SDQH0 timing [translation, transform, screening] (s):    0.019802    0.003233    0.000351
build_SDQH0 diagonal (s):    0.000885
build_SDQH0 timing [translation, transform, screening] (s):    0.020092    0.003225    0.000354
build_SDQH0 diagonal (s):    0.000899
build_SDQH0 timing [translation, transform, screening] (s):    0.020497    0.003642    0.000349
build_SDQH0 diagonal (s):    0.000875
build_SDQH0 timing [translation, transform, screening] (s):    0.020052    0.003223    0.000351
build_SDQH0 diagonal (s):    0.000871
build_SDQH0 timing [translation, transform, screening] (s):    0.019752    0.003222    0.000350
build_SDQH0 diagonal (s):    0.000893
build_SDQH0 timing [translation, transform, screening] (s):    0.020069    0.003223    0.000353
build_SDQH0 diagonal (s):    0.000861
build_SDQH0 timing [translation, transform, screening] (s):    0.020487    0.003649    0.000352
build_SDQH0 diagonal (s):    0.000858
build_SDQH0 timing [translation, transform, screening] (s):    0.020077    0.003225    0.000349
build_SDQH0 diagonal (s):    0.000860
build_SDQH0 timing [translation, transform, screening] (s):    0.020050    0.003225    0.000349
build_SDQH0 diagonal (s):    0.000902
build_SDQH0 timing [translation, transform, screening] (s):    0.019731    0.003224    0.000351
build_SDQH0 diagonal (s):    0.000879
build_SDQH0 timing [translation, transform, screening] (s):    0.020467    0.003654    0.000349
build_SDQH0 diagonal (s):    0.000841
build_SDQH0 timing [translation, transform, screening] (s):    0.020060    0.003229    0.000350
build_SDQH0 diagonal (s):    0.000860
build_SDQH0 timing [translation, transform, screening] (s):    0.020079    0.003219    0.000349
build_SDQH0 diagonal (s):    0.000863
build_SDQH0 timing [translation, transform, screening] (s):    0.019652    0.003224    0.000349
build_SDQH0 diagonal (s):    0.000857
build_SDQH0 timing [translation, transform, screening] (s):    0.020502    0.003636    0.000349
build_SDQH0 diagonal (s):    0.000842
build_SDQH0 timing [translation, transform, screening] (s):    0.020072    0.003219    0.000351
build_SDQH0 diagonal (s):    0.000869
build_SDQH0 timing [translation, transform, screening] (s):    0.020057    0.003225    0.000348
build_SDQH0 diagonal (s):    0.000845
build_SDQH0 timing [translation, transform, screening] (s):    0.019791    0.003223    0.000350
build_SDQH0 diagonal (s):    0.000842
build_SDQH0 timing [translation, transform, screening] (s):    0.020477    0.003652    0.000349
build_SDQH0 diagonal (s):    0.000846
build_SDQH0 timing [translation, transform, screening] (s):    0.020152    0.003224    0.000462
build_SDQH0 diagonal (s):    0.000837
build_SDQH0 timing [translation, transform, screening] (s):    0.020050    0.003220    0.000348
build_SDQH0 diagonal (s):    0.000837
build_SDQH0 timing [translation, transform, screening] (s):    0.019829    0.003225    0.000349
build_SDQH0 diagonal (s):    0.000884
build_SDQH0 timing [translation, transform, screening] (s):    0.020485    0.003655    0.000351
build_SDQH0 diagonal (s):    0.000862
build_SDQH0 timing [translation, transform, screening] (s):    0.020051    0.003221    0.000349
build_SDQH0 diagonal (s):    0.000876
build_SDQH0 timing [translation, transform, screening] (s):    0.020031    0.003223    0.000351
build_SDQH0 diagonal (s):    0.000884
build_SDQH0 timing [translation, transform, screening] (s):    0.020510    0.003650    0.000350
build_SDQH0 diagonal (s):    0.000859
build_SDQH0 timing [translation, transform, screening] (s):    0.019670    0.003229    0.000350
build_SDQH0 diagonal (s):    0.000902
build_SDQH0 timing [translation, transform, screening] (s):    0.020063    0.003221    0.000349
build_SDQH0 diagonal (s):    0.000849
build_SDQH0 timing [translation, transform, screening] (s):    0.020490    0.003644    0.000349
build_SDQH0 diagonal (s):    0.000860
build_SDQH0 timing [translation, transform, screening] (s):    0.020065    0.003229    0.000351
build_SDQH0 diagonal (s):    0.000880
[...]
  283:     10.80  284:     11.39  285:     12.71  286:     12.30  287:     12.08  288:     12.25
  289:      1.07  290:      1.07  291:      1.07  292:      1.07  293:      1.07  294:      1.07
  295:      1.09  296:      1.07  297:      1.08  298:      1.06  299:      1.09  300:      1.05
  301:      1.10  302:      1.05  303:      1.07  304:      1.07  305:      1.09  306:      1.08
  307:      1.04  308:      1.08  309:      1.05  310:      1.08  311:      1.07  312:      1.08
  313:      1.09  314:      1.08  315:      1.06  316:      1.08  317:      1.06  318:      1.08
  319:      1.06  320:      1.08  321:      1.08  322:      1.08  323:      1.08  324:      1.08
  325:      1.08  326:      1.08  327:      1.07  328:      1.09  329:      1.08  330:      1.09
  331:      1.09  332:      1.09  333:      1.09  334:      1.08  335:      1.07  336:      1.07
  337:      1.07  338:      1.07  339:      1.06
 IR intensities (km·mol⁻¹)
    1:      0.05    2:      0.11    3:      0.20    4:      0.19    5:      0.20    6:      0.19
    7:      2.67    8:      0.13    9:      0.19   10:      0.66   11:      0.10   12:      0.93
   13:      1.82   14:      0.28   15:      0.14   16:      0.91   17:      0.20   18:      0.72
   19:      1.46   20:      2.27   21:      0.91   22:      0.26   23:      0.34   24:      1.25
   25:      1.58   26:      0.18   27:      1.50   28:      3.64   29:      2.89   30:      4.73
   31:      6.02   32:      7.46   33:      0.30   34:      3.78   35:      0.73   36:      1.41
   37:      1.73   38:      2.26   39:      5.50   40:      1.86   41:      5.46   42:      0.17
   43:      2.79   44:      4.26   45:      1.65   46:     16.48   47:      0.34   48:      0.37
   49:      0.12   50:      2.95   51:      0.50   52:      2.31   53:      0.42   54:      3.69
   55:      4.85   56:      5.43   57:      9.82   58:      0.35   59:      5.63   60:      1.34
   61:      3.10   62:      9.20   63:     26.61   64:     21.45   65:     21.18   66:     39.68
   67:     10.15   68:      7.54   69:      8.60   70:     26.43   71:      5.45   72:      3.06
   73:      2.30   74:      0.50   75:      1.29   76:      0.63   77:      6.45   78:     11.24
   79:     17.80   80:      2.15   81:      7.34   82:     15.53   83:     14.40   84:     18.16
   85:     46.84   86:      6.83   87:     12.80   88:      4.31   89:      3.19   90:     16.39
   91:     35.98   92:     14.07   93:     35.83   94:     13.83   95:     12.67   96:      0.75
   97:      6.92   98:      2.40   99:      1.80  100:     14.58  101:      7.31  102:     11.09
  103:      0.90  104:      4.53  105:      2.78  106:      2.09  107:      0.97  108:      6.34
  109:      9.74  110:     33.72  111:     18.75  112:      0.64  113:      3.79  114:     21.32
  115:     12.70  116:      5.68  117:      1.36  118:     13.77  119:     11.68  120:     79.22
  121:     12.49  122:     16.41  123:     78.70  124:     32.13  125:      1.78  126:      3.09
  127:      7.30  128:     35.93  129:     23.01  130:      3.72  131:      6.70  132:      8.11
  133:      1.17  134:      7.09  135:      7.26  136:      8.69  137:      2.66  138:     10.11
  139:      0.44  140:      0.59  141:      2.91  142:     31.30  143:     17.05  144:      6.39
  145:      1.36  146:      2.70  147:      1.25  148:      9.09  149:     19.02  150:      1.85
  151:      0.28  152:      2.52  153:      2.15  154:      1.07  155:     22.66  156:      0.76
  157:     34.13  158:     21.70  159:      1.72  160:      8.94  161:      1.79  162:     64.38
  163:     50.90  164:     14.22  165:      4.88  166:     33.99  167:     24.48  168:     24.77
  169:     25.82  170:      5.12  171:     30.30  172:      6.18  173:     39.44  174:     22.27
  175:     29.63  176:     31.13  177:     41.27  178:     24.75  179:     33.61  180:      6.68
  181:      0.67  182:     24.79  183:     50.13  184:      1.29  185:    115.68  186:      8.94
  187:     43.73  188:      9.61  189:    167.08  190:     34.83  191:      1.12  192:     97.00
  193:     33.72  194:     89.06  195:     30.65  196:      6.39  197:     22.26  198:     22.70
  199:      4.30  200:      0.10  201:    200.94  202:    141.60  203:      5.85  204:    135.49
  205:      6.49  206:     40.20  207:     24.40  208:      9.54  209:    192.15  210:    416.28
  211:     88.76  212:      5.47  213:     66.15  214:      6.01  215:      4.42  216:     34.90
  217:    118.95  218:     77.14  219:    105.26  220:     19.60  221:    133.41  222:     34.20
  223:     79.30  224:     86.49  225:     10.29  226:      5.46  227:     39.16  228:      6.96
  229:      2.21  230:     19.11  231:     10.80  232:     23.52  233:      6.05  234:     60.63
  235:     36.93  236:     49.63  237:     39.01  238:      7.58  239:     33.30  240:      9.59
  241:      5.14  242:     14.54  243:    142.13  244:      6.15  245:     86.53  246:     39.44
  247:     37.39  248:     48.80  249:     30.06  250:    233.31  251:      7.08  252:     25.13
  253:      5.16  254:     11.89  255:     11.74  256:      3.54  257:      1.99  258:     13.93
  259:     33.52  260:     12.79  261:     13.53  262:     27.34  263:      2.83  264:     34.50
  265:     10.34  266:      7.23  267:     10.77  268:      0.85  269:      2.43  270:     11.23
  271:      3.67  272:      7.86  273:      4.76  274:      0.65  275:      6.14  276:      0.77
  277:      0.24  278:     25.60  279:      0.12  280:      8.25  281:      2.94  282:      7.54
  283:    541.54  284:    222.63  285:    427.97  286:    313.72  287:    805.35  288:    158.88
  289:     32.94  290:      0.72  291:     23.77  292:     29.33  293:      9.91  294:     11.35
  295:     21.29  296:      0.05  297:      2.05  298:     17.38  299:      5.00  300:     13.80
  301:      6.19  302:      7.04  303:      0.74  304:      2.66  305:      2.05  306:     17.00
  307:      5.60  308:     21.84  309:      0.37  310:     13.63  311:      6.98  312:      6.49
  313:     34.74  314:      4.38  315:      7.59  316:     15.50  317:      4.88  318:      9.16
  319:      3.98  320:      6.97  321:      5.23  322:      2.57  323:     20.60  324:     38.10
  325:     21.37  326:     27.99  327:     11.28  328:     36.02  329:     23.89  330:     36.22
  331:     34.33  332:     22.12  333:     17.67  334:      5.33  335:     18.18  336:    401.45
  337:     60.32  338:     91.42  339:     55.95
 Raman intensities (Ä⁴*amu⁻¹)
    1:      0.00    2:      0.00    3:      0.00    4:      0.00    5:      0.00    6:      0.00
    7:      0.00    8:      0.00    9:      0.00   10:      0.00   11:      0.00   12:      0.00
   13:      0.00   14:      0.00   15:      0.00   16:      0.00   17:      0.00   18:      0.00
   19:      0.00   20:      0.00   21:      0.00   22:      0.00   23:      0.00   24:      0.00
   25:      0.00   26:      0.00   27:      0.00   28:      0.00   29:      0.00   30:      0.00
   31:      0.00   32:      0.00   33:      0.00   34:      0.00   35:      0.00   36:      0.00
   37:      0.00   38:      0.00   39:      0.00   40:      0.00   41:      0.00   42:      0.00
   43:      0.00   44:      0.00   45:      0.00   46:      0.00   47:      0.00   48:      0.00
   49:      0.00   50:      0.00   51:      0.00   52:      0.00   53:      0.00   54:      0.00
   55:      0.00   56:      0.00   57:      0.00   58:      0.00   59:      0.00   60:      0.00
   61:      0.00   62:      0.00   63:      0.00   64:      0.00   65:      0.00   66:      0.00
   67:      0.00   68:      0.00   69:      0.00   70:      0.00   71:      0.00   72:      0.00
   73:      0.00   74:      0.00   75:      0.00   76:      0.00   77:      0.00   78:      0.00
   79:      0.00   80:      0.00   81:      0.00   82:      0.00   83:      0.00   84:      0.00
   85:      0.00   86:      0.00   87:      0.00   88:      0.00   89:      0.00   90:      0.00
   91:      0.00   92:      0.00   93:      0.00   94:      0.00   95:      0.00   96:      0.00
   97:      0.00   98:      0.00   99:      0.00  100:      0.00  101:      0.00  102:      0.00
  103:      0.00  104:      0.00  105:      0.00  106:      0.00  107:      0.00  108:      0.00
  109:      0.00  110:      0.00  111:      0.00  112:      0.00  113:      0.00  114:      0.00
  115:      0.00  116:      0.00  117:      0.00  118:      0.00  119:      0.00  120:      0.00
  121:      0.00  122:      0.00  123:      0.00  124:      0.00  125:      0.00  126:      0.00
  127:      0.00  128:      0.00  129:      0.00  130:      0.00  131:      0.00  132:      0.00
  133:      0.00  134:      0.00  135:      0.00  136:      0.00  137:      0.00  138:      0.00
  139:      0.00  140:      0.00  141:      0.00  142:      0.00  143:      0.00  144:      0.00
  145:      0.00  146:      0.00  147:      0.00  148:      0.00  149:      0.00  150:      0.00
  151:      0.00  152:      0.00  153:      0.00  154:      0.00  155:      0.00  156:      0.00
  157:      0.00  158:      0.00  159:      0.00  160:      0.00  161:      0.00  162:      0.00
  163:      0.00  164:      0.00  165:      0.00  166:      0.00  167:      0.00  168:      0.00
Molecule has no symmetry elements
It seems to be the C1 point group
  169:      0.00  170:      0.00  171:      0.00  172:      0.00  173:      0.00  174:      0.00
  175:      0.00  176:      0.00  177:      0.00  178:      0.00  179:      0.00  180:      0.00
  181:      0.00  182:      0.00  183:      0.00  184:      0.00  185:      0.00  186:      0.00
  187:      0.00  188:      0.00  189:      0.00  190:      0.00  191:      0.00  192:      0.00
  193:      0.00  194:      0.00  195:      0.00  196:      0.00  197:      0.00  198:      0.00
  199:      0.00  200:      0.00  201:      0.00  202:      0.00  203:      0.00  204:      0.00
  205:      0.00  206:      0.00  207:      0.00  208:      0.00  209:      0.00  210:      0.00
  211:      0.00  212:      0.00  213:      0.00  214:      0.00  215:      0.00  216:      0.00
  217:      0.00  218:      0.00  219:      0.00  220:      0.00  221:      0.00  222:      0.00
  223:      0.00  224:      0.00  225:      0.00  226:      0.00  227:      0.00  228:      0.00
  229:      0.00  230:      0.00  231:      0.00  232:      0.00  233:      0.00  234:      0.00
  235:      0.00  236:      0.00  237:      0.00  238:      0.00  239:      0.00  240:      0.00
  241:      0.00  242:      0.00  243:      0.00  244:      0.00  245:      0.00  246:      0.00
  247:      0.00  248:      0.00  249:      0.00  250:      0.00  251:      0.00  252:      0.00
  253:      0.00  254:      0.00  255:      0.00  256:      0.00  257:      0.00  258:      0.00
  259:      0.00  260:      0.00  261:      0.00  262:      0.00  263:      0.00  264:      0.00
  265:      0.00  266:      0.00  267:      0.00  268:      0.00  269:      0.00  270:      0.00
  271:      0.00  272:      0.00  273:      0.00  274:      0.00  275:      0.00  276:      0.00
  277:      0.00  278:      0.00  279:      0.00  280:      0.00  281:      0.00  282:      0.00
  283:      0.00  284:      0.00  285:      0.00  286:      0.00  287:      0.00  288:      0.00
  289:      0.00  290:      0.00  291:      0.00  292:      0.00  293:      0.00  294:      0.00
  295:      0.00  296:      0.00  297:      0.00  298:      0.00  299:      0.00  300:      0.00
  301:      0.00  302:      0.00  303:      0.00  304:      0.00  305:      0.00  306:      0.00
  307:      0.00  308:      0.00  309:      0.00  310:      0.00  311:      0.00  312:      0.00
  313:      0.00  314:      0.00  315:      0.00  316:      0.00  317:      0.00  318:      0.00
  319:      0.00  320:      0.00  321:      0.00  322:      0.00  323:      0.00  324:      0.00
  325:      0.00  326:      0.00  327:      0.00  328:      0.00  329:      0.00  330:      0.00
  331:      0.00  332:      0.00  333:      0.00  334:      0.00  335:      0.00  336:      0.00
  337:      0.00  338:      0.00  339:      0.00
 output can be read by thermo (or use thermo option).
 writing <g98.out> molden fake output.
 recommended (thermochemical) frequency scaling factor: 1.0
           -------------------------------------------------
          |             Thermodynamic Functions             |
           -------------------------------------------------

c1  symmetry found (for desy threshold:  0.10E+00) used in thermo

          ...................................................
          :                      SETUP                      :
          :.................................................:
          :  # frequencies                         333      :
          :  # imaginary freq.                       0      :
          :  linear?                             false      :
          :  only rotor calc.                    false      :
          :  symmetry                               c1      :
          :  rotational number                       1      :
          :  scaling factor                  1.0000000      :
          :  rotor cutoff                   50.0000000 cm⁻¹ :
          :  imag. cutoff                  -20.0000000 cm⁻¹ :
          :.................................................:

    mode    ω/cm⁻¹     T·S(HO)/kcal·mol⁻¹    T·S(FR)/kcal·mol⁻¹   T·S(vib)
   ------------------------------------------------------------------------
       1     60.21    -1.32684 ( 67.77%)    -1.00149 ( 32.23%)    -1.22199
       2     64.30    -1.28820 ( 73.23%)    -0.98203 ( 26.77%)    -1.20623
       3     66.60    -1.26759 ( 75.89%)    -0.97164 ( 24.11%)    -1.19623
       4     68.73    -1.24904 ( 78.12%)    -0.96228 ( 21.88%)    -1.18631
       5     71.94    -1.22231 ( 81.08%)    -0.94878 ( 18.92%)    -1.17055
       6     73.36    -1.21080 ( 82.25%)    -0.94297 ( 17.75%)    -1.16327
       7     76.78    -1.18408 ( 84.76%)    -0.92946 ( 15.24%)    -1.14528
       8     77.99    -1.17497 ( 85.55%)    -0.92486 ( 14.45%)    -1.13882
       9     80.92    -1.15336 ( 87.28%)    -0.91392 ( 12.72%)    -1.12290
      10     83.05    -1.13815 ( 88.39%)    -0.90621 ( 11.61%)    -1.11122
      11     86.02    -1.11763 ( 89.76%)    -0.89581 ( 10.24%)    -1.09491
      12     87.52    -1.10752 ( 90.37%)    -0.89068 (  9.63%)    -1.08665
      13     90.93    -1.08523 ( 91.62%)    -0.87936 (  8.38%)    -1.06798
      14     95.26    -1.05815 ( 92.95%)    -0.86559 (  7.05%)    -1.04456
      15     98.48    -1.03878 ( 93.77%)    -0.85573 (  6.23%)    -1.02738
      16    105.58    -0.99837 ( 95.21%)    -0.83511 (  4.79%)    -0.99055
      17    109.13    -0.97921 ( 95.78%)    -0.82532 (  4.22%)    -0.97272
      18    111.68    -0.96587 ( 96.14%)    -0.81849 (  3.86%)    -0.96017
      19    112.01    -0.96414 ( 96.18%)    -0.81761 (  3.82%)    -0.95855
      20    117.58    -0.93613 ( 96.83%)    -0.80324 (  3.17%)    -0.93192
      21    122.03    -0.91470 ( 97.26%)    -0.79222 (  2.74%)    -0.91134
      22    123.11    -0.90966 ( 97.35%)    -0.78962 (  2.65%)    -0.90648
      23    126.49    -0.89406 ( 97.62%)    -0.78159 (  2.38%)    -0.89138
      24    128.94    -0.88307 ( 97.79%)    -0.77592 (  2.21%)    -0.88070
      25    134.61    -0.85841 ( 98.13%)    -0.76317 (  1.87%)    -0.85663
      26    141.66    -0.82926 ( 98.47%)    -0.74805 (  1.53%)    -0.82802
      27    150.09    -0.79638 ( 98.78%)    -0.73091 (  1.22%)    -0.79559
      28    166.49    -0.73784 ( 99.19%)    -0.70020 (  0.81%)    -0.73754
      29    168.04    -0.73263 ( 99.22%)    -0.69744 (  0.78%)    -0.73235
      30    169.76    -0.72692 ( 99.25%)    -0.69443 (  0.75%)    -0.72668
      31    177.38    -0.70238 ( 99.37%)    -0.68142 (  0.63%)    -0.70225
      32    180.88    -0.69152 ( 99.42%)    -0.67564 (  0.58%)    -0.69142
      33    187.14    -0.67261 ( 99.49%)    -0.66555 (  0.51%)    -0.67257
      34    192.97    -0.65566 ( 99.55%)    -0.65647 (  0.45%)    -0.65566
      35    199.28    -0.63796 ( 99.61%)    -0.64694 (  0.39%)    -0.63800
      36    207.12    -0.61684 ( 99.66%)    -0.63551 (  0.34%)    -0.61691
      37    214.77    -0.59711 ( 99.71%)    -0.62476 (  0.29%)    -0.59719
      38    219.71    -0.58482 ( 99.73%)    -0.61803 (  0.27%)    -0.58491
      39    221.52    -0.58040 ( 99.74%)    -0.61560 (  0.26%)    -0.58049
      40    228.64    -0.56339 ( 99.77%)    -0.60623 (  0.23%)    -0.56349
      41    233.52    -0.55209 ( 99.79%)    -0.59997 (  0.21%)    -0.55219
      42    242.05    -0.53303 ( 99.82%)    -0.58934 (  0.18%)    -0.53313
      43    249.10    -0.51786 ( 99.84%)    -0.58083 (  0.16%)    -0.51796
      44    252.12    -0.51153 ( 99.85%)    -0.57726 (  0.15%)    -0.51163
      45    257.37    -0.50076 ( 99.86%)    -0.57116 (  0.14%)    -0.50086
      46    264.71    -0.48614 ( 99.87%)    -0.56283 (  0.13%)    -0.48624
      47    267.51    -0.48070 ( 99.88%)    -0.55972 (  0.12%)    -0.48079
      48    274.46    -0.46749 ( 99.89%)    -0.55211 (  0.11%)    -0.46758
      49    284.60    -0.44897 ( 99.90%)    -0.54136 (  0.10%)    -0.44906
      50    287.72    -0.44346 ( 99.91%)    -0.53814 (  0.09%)    -0.44354
      51    293.83    -0.43286 ( 99.92%)    -0.53192 (  0.08%)    -0.43295
   ------------------------------------------------------------------------

   temp. (K)  partition function   enthalpy   heat capacity  entropy
                                   cal/mol     cal/K/mol   cal/K/mol   J/K/mol
 298.15  VIB  0.878E+20            33075.308    218.627    199.906
Note: The following floating-point exceptions are signalling: IEEE_UNDERFLOW_FLAG IEEE_DENORMAL
normal termination of xtb
         ROT  0.112E+09              888.727      2.981     39.803
         INT  0.979E+28            33964.035    221.608    239.710
         TR   0.763E+27             1481.212      4.968     46.111
         TOT                       35445.2477   226.5759   285.8204  1195.8724

       T/K    H(0)-H(T)+PV         H(T)/Eh          T*S/Eh         G(T)/Eh
   ------------------------------------------------------------------------
    298.15    0.564856E-01    0.956414E+00    0.135802E+00    0.820611E+00
   ------------------------------------------------------------------------

         :::::::::::::::::::::::::::::::::::::::::::::::::::::
         ::                  THERMODYNAMIC                  ::
         :::::::::::::::::::::::::::::::::::::::::::::::::::::
         :: total free energy        -185.774622202484 Eh   ::
         ::.................................................::
         :: total energy             -186.595233665005 Eh   ::
         :: zero point energy           0.899928346815 Eh   ::
         :: G(RRHO) w/o ZPVE           -0.079316884294 Eh   ::
         :: G(RRHO) contrib.            0.820611462521 Eh   ::
         :::::::::::::::::::::::::::::::::::::::::::::::::::::

optimized geometry written to: xtbopt.xyz


           -------------------------------------------------
          | TOTAL ENERGY             -186.595233665005 Eh   |
          | TOTAL ENTHALPY           -185.638819720584 Eh   |
          | TOTAL FREE ENERGY        -185.774622202484 Eh   |
          | GRADIENT NORM               0.000639862886 Eh/α |
          | HOMO-LUMO GAP               2.777674856137 eV   |
           -------------------------------------------------

------------------------------------------------------------------------
 * finished run on 2025/11/19 at 17:41:26.628     
------------------------------------------------------------------------
 total:
 * wall-time:     0 d,  0 h,  1 min, 25.233 sec
 *  cpu-time:     0 d,  0 h,  3 min, 37.481 sec
 * ratio c/w:     2.552 speedup
 SCF:
 * wall-time:     0 d,  0 h,  0 min,  0.135 sec
 *  cpu-time:     0 d,  0 h,  0 min,  0.224 sec
 * ratio c/w:     1.657 speedup
 analytical hessian:
 * wall-time:     0 d,  0 h,  0 min, 37.920 sec
 *  cpu-time:     0 d,  0 h,  2 min, 30.612 sec
 * ratio c/w:     3.972 speedup

