      -----------------------------------------------------------      
     |                   =====================                   |     
     |                           x T B                           |     
     |                   =====================                   |     
     |                         S. Grimme                         |     
     |          Mulliken Center for Theoretical Chemistry        |     
     |                    University of Bonn                     |     
      -----------------------------------------------------------      

   * xtb version 6.7.1 (93bfc74) compiled by 'daniel-wiczew@NEBULA' on 2025-11-19

   xtb is free software: you can redistribute it and/or modify it under
   the terms of the GNU Lesser General Public License as published by
   the Free Software Foundation, either version 3 of the License, or
   (at your option) any later version.
   
   xtb is distributed in the hope that it will be useful,
   but WITHOUT ANY WARRANTY; without even the implied warranty of
   MERCHANTABILITY or FITNESS FOR A PARTICULAR PURPOSE.  See the
   GNU Lesser General Public License for more details.
   
   Cite this work as:
   * C. Bannwarth, E. Caldeweyher, S. Ehlert, A. Hansen, P. Pracht,
     J. Seibert, S. Spicher, S. Grimme, WIREs Comput. Mol. Sci., 2020, 11,
     e01493. DOI: 10.1002/wcms.1493
   
   for GFN2-xTB:
   * C. Bannwarth, S. Ehlert and S. Grimme., J. Chem. Theory Comput., 2019,
     15, 1652-1671. DOI: 10.1021/acs.jctc.8b01176
   for GFN1-xTB:
   * S. Grimme, C. Bannwarth, P. Shushkov, J. Chem. Theory Comput., 2017,
     13, 1989-2009. DOI: 10.1021/acs.jctc.7b00118
   for GFN0-xTB:
   * P. Pracht, E. Caldeweyher, S. Ehlert, S. Grimme, ChemRxiv, 2019, preprint.
     DOI: 10.26434/chemrxiv.8326202.v1
   for GFN-FF:
   * S. Spicher and S. Grimme, Angew. Chem. Int. Ed., 2020, 59, 15665-15673.
     DOI: 10.1002/anie.202004239
   
   for ALPB and GBSA implicit solvation:
   * S. Ehlert, M. Stahn, S. Spicher, S. Grimme, J. Chem. Theory Comput.,
     2021, 17, 4250-4261. DOI: 10.1021/acs.jctc.1c00471
   
   for ddCOSMO and CPCM-X implicit solvation:
   * M. Stahn, S. Ehlert, S. Grimme, J. Phys. Chem. A,
     2023, XX, XXXX-XXXX. DOI: 10.1021/acs.jpca.3c04382
   
   for DFT-D4:
   * E. Caldeweyher, C. Bannwarth and S. Grimme, J. Chem. Phys., 2017,
     147, 034112. DOI: 10.1063/1.4993215
   * E. Caldeweyher, S. Ehlert, A. Hansen, H. Neugebauer, S. Spicher,
     C. Bannwarth and S. Grimme, J. Chem. Phys., 2019, 150, 154122.
     DOI: 10.1063/1.5090222
   * E. Caldeweyher, J.-M. Mewes, S. Ehlert and S. Grimme, Phys. Chem. Chem. Phys.
     2020, 22, 8499-8512. DOI: 10.1039/D0CP00502A
   
   for sTDA-xTB:
   * S. Grimme and C. Bannwarth, J. Chem. Phys., 2016, 145, 054103.
     DOI: 10.1063/1.4959605
   
   in the mass-spec context:
   * V. Asgeirsson, C. Bauer and S. Grimme, Chem. Sci., 2017, 8, 4879.
     DOI: 10.1039/c7sc00601b
   * J. Koopman and S. Grimme, ACS Omega 2019, 4, 12, 15120-15133.
     DOI: 10.1021/acsomega.9b02011
   
   for metadynamics refer to:
   * S. Grimme, J. Chem. Theory Comput., 2019, 155, 2847-2862
     DOI: 10.1021/acs.jctc.9b00143
   
   for SPH calculations refer to:
   * S. Spicher and S. Grimme, J. Chem. Theory Comput., 2021, 17, 1701-1714
     DOI: 10.1021/acs.jctc.0c01306
   
   for ONIOM refer to:
   * C. Plett, A. Katbashev, S. Ehlert, S. Grimme, M. Bursch,
     Phys. Chem. Chem. Phys., 2023, 25, 17860-17868. DOI: 10.1039/D3CP02178E
   
   for DIPRO refer to:
   * J. Kohn, N. Gildemeister, S. Grimme, D. Fazzi, A. Hansen,
     J. Chem. Phys. 159, 144106 (2023). DOI: 10.1063/5.0167484
   
   for PTB refer to:
   * S. Grimme, M. Mueller, A. Hansen, J. Chem. Phys., 2023, 158, 124111.
     DOI: 10.1063/5.0137838
   
   with help from (in alphabetical order)
   P. Atkinson, C. Bannwarth, F. Bohle, G. Brandenburg, E. Caldeweyher
   M. Checinski, S. Dohm, S. Ehlert, S. Ehrlich, I. Gerasimov, C. Hölzer
   A. Katbashev, J. Kohn, J. Koopman, C. Lavigne, S. Lehtola, F. März, M. Müller,
   F. Musil, H. Neugebauer, J. Pisarek, C. Plett, P. Pracht, F. Pultar,
   J. Seibert, P. Shushkov, S. Spicher, M. Stahn, M. Steiner, T. Strunk,
   J. Stückrath, T. Rose, and J. Unsleber
   
 * started run on 2025/11/19 at 16:52:17.417     
   ID    Z sym.   atoms
    1    6 C      1-3, 7, 8, 11, 14, 15, 19, 23, 26, 28-33, 39, 41, 42, 46,
                  47, 50, 54, 55, 57, 60, 62, 66, 72, 74, 80, 82, 86, 88,
                  90-95, 102-107
    2    1 H      4-6, 9, 10, 13, 16-18, 20-22, 24, 34-38, 40, 43, 44, 48,
                  49, 52, 53, 58, 63-65, 67-70, 75-78, 84, 85, 96-101, 108-113
    3    8 O      12, 25, 27, 45, 51, 56, 59, 61, 71, 73, 79, 81, 83, 89
    4    7 N      87

           -------------------------------------------------
          |                Calculation Setup                |
           -------------------------------------------------

          program call               : build/xtb assets/inputs/xyz/taxol.xyz --gfn2
          coordinate file            : assets/inputs/xyz/taxol.xyz
          omp threads                :                     4


           -------------------------------------------------
          |                 G F N 2 - x T B                 |
           -------------------------------------------------

        Reference                      10.1021/acs.jctc.8b01176
      * Hamiltonian:
        H0-scaling (s, p, d)           1.850000    2.230000    2.230000
        zeta-weighting                 0.500000
      * Dispersion:
        s8                             2.700000
        a1                             0.520000
        a2                             5.000000
        s9                             5.000000
      * Repulsion:
        kExp                           1.500000    1.000000
        rExp                           1.000000
      * Coulomb:
        alpha                          2.000000
        third order                    shell-resolved
        anisotropic                    true
        a3                             3.000000
        a5                             4.000000
        cn-shift                       1.200000
        cn-exp                         4.000000
        max-rad                        5.000000


          ...................................................
          :                      SETUP                      :
          :.................................................:
          :  # basis functions                 299          :
          :  # atomic orbitals                 299          :
          :  # shells                          175          :
          :  # electrons                       328          :
          :  max. iterations                   250          :
          :  Hamiltonian                  GFN2-xTB          :
          :  restarted?                      false          :
          :  GBSA solvation                  false          :
          :  PC potential                    false          :
          :  electronic temp.          300.0000000     K    :
          :  accuracy                    1.0000000          :
          :  -> integral cutoff          0.2500000E+02      :
          :  -> integral neglect         0.1000000E-07      :
          :  -> SCF convergence          0.1000000E-05 Eh   :
          :  -> wf. convergence          0.1000000E-03 e    :
          :  Broyden damping             0.4000000          :
          :  net charge                          0          :
          :  unpaired electrons                  0          :
          ...................................................
build_SDQH0 timing [translation, transform, screening] (s):    0.030480    0.003803    0.000388
build_SDQH0 diagonal (s):    0.001742

 iter      E             dE          RMSdq      gap      omega  full diag
   1   -188.4585126 -0.188459E+03  0.430E+00    3.17       0.0  T
   2   -188.7672301 -0.308717E+00  0.238E+00    2.57       1.0  T
   3   -188.7755403 -0.831027E-02  0.125E+00    2.76       1.0  T
   4   -188.8053070 -0.297667E-01  0.222E-01    2.39       1.0  T
   5   -188.8088147 -0.350774E-02  0.102E-01    2.47       1.0  T
   6   -188.8095834 -0.768633E-03  0.447E-02    2.50       1.0  T
   7   -188.8096582 -0.747808E-04  0.200E-02    2.50       1.0  T
   8   -188.8096647 -0.650686E-05  0.764E-03    2.50       1.2  T
   9   -188.8096679 -0.325439E-05  0.330E-03    2.50       2.9  T
  10   -188.8096681 -0.193262E-06  0.177E-03    2.50       5.3  T
  11   -188.8096683 -0.187207E-06  0.709E-04    2.50      13.3  T
  12   -188.8096683 -0.145422E-07  0.320E-04    2.50      29.4  T

   *** convergence criteria satisfied after 12 iterations ***

         #    Occupation            Energy/Eh            Energy/eV
      -------------------------------------------------------------
         1        2.0000           -0.8001956             -21.7744
       ...           ...                  ...                  ...
       158        2.0000           -0.4213485             -11.4655
       159        2.0000           -0.4206048             -11.4452
       160        2.0000           -0.4170713             -11.3491
       161        2.0000           -0.4148164             -11.2877
       162        2.0000           -0.4135382             -11.2529
       163        2.0000           -0.4038464             -10.9892
       164        2.0000           -0.3987816             -10.8514 (HOMO)
       165                         -0.3068603              -8.3501 (LUMO)
       166                         -0.2921300              -7.9493
       167                         -0.2740418              -7.4571
       168                         -0.2652041              -7.2166
       169                         -0.2611443              -7.1061
       ...                                ...                  ...
       299                          0.6614375              17.9986
      -------------------------------------------------------------
                  HL-Gap            0.0919213 Eh            2.5013 eV
             Fermi-level           -0.3528209 Eh           -9.6007 eV

 SCC (total)                   0 d,  0 h,  0 min,  0.365 sec
 SCC setup                      ...        0 min,  0.000 sec (  0.130%)
 Dispersion                     ...        0 min,  0.002 sec (  0.524%)
 classical contributions        ...        0 min,  0.000 sec (  0.078%)
 integral evaluation            ...        0 min,  0.013 sec (  3.566%)
 iterations                     ...        0 min,  0.318 sec ( 87.120%)
 molecular gradient             ...        0 min,  0.027 sec (  7.345%)
 printout                       ...        0 min,  0.005 sec (  1.235%)

         :::::::::::::::::::::::::::::::::::::::::::::::::::::
         ::                     SUMMARY                     ::
         :::::::::::::::::::::::::::::::::::::::::::::::::::::
         :: total energy            -186.500449124213 Eh    ::
         :: gradient norm              0.142090738403 Eh/a0 ::
         :: HOMO-LUMO gap              2.501305953618 eV    ::
         ::.................................................::
         :: SCC energy              -188.798381924246 Eh    ::
         :: -> isotropic ES            0.336329706399 Eh    ::
         :: -> anisotropic ES         -0.000860166746 Eh    ::
         :: -> anisotropic XC          0.039433220075 Eh    ::
         :: -> dispersion             -0.169331199449 Eh    ::
         :: repulsion energy           2.297932800033 Eh    ::
         :: add. restraining           0.000000000000 Eh    ::
         :: total charge              -0.000000000000 e     ::
         :::::::::::::::::::::::::::::::::::::::::::::::::::::

           -------------------------------------------------
          |                Property Printout                |
           -------------------------------------------------

    * Orbital Energies and Occupations

         #    Occupation            Energy/Eh            Energy/eV
      -------------------------------------------------------------
         1        2.0000           -0.8001956             -21.7744
       ...           ...                  ...                  ...
       152        2.0000           -0.4383195             -11.9273
       153        2.0000           -0.4338106             -11.8046
       154        2.0000           -0.4285976             -11.6627
       155        2.0000           -0.4256716             -11.5831
       156        2.0000           -0.4238991             -11.5349
       157        2.0000           -0.4227325             -11.5031
       158        2.0000           -0.4213485             -11.4655
       159        2.0000           -0.4206048             -11.4452
       160        2.0000           -0.4170713             -11.3491
       161        2.0000           -0.4148164             -11.2877
       162        2.0000           -0.4135382             -11.2529
       163        2.0000           -0.4038464             -10.9892
       164        2.0000           -0.3987816             -10.8514 (HOMO)
       165                         -0.3068603              -8.3501 (LUMO)
       166                         -0.2921300              -7.9493
       167                         -0.2740418              -7.4571
       168                         -0.2652041              -7.2166
       169                         -0.2611443              -7.1061
       170                         -0.2593646              -7.0577
       171                         -0.2478337              -6.7439
       172                         -0.2460511              -6.6954
       173                         -0.2442486              -6.6463
       174                         -0.2411019              -6.5607
       175                         -0.2228650              -6.0645
       ...                                ...                  ...
       299                          0.6614375              17.9986
      -------------------------------------------------------------
                  HL-Gap            0.0919213 Eh            2.5013 eV
             Fermi-level           -0.3528209 Eh           -9.6007 eV

     #   Z          covCN         q      C6AA      α(0)
     1   6          2.963    -0.051    29.276     8.875
     2   6          2.966    -0.012    28.320     8.729
     3   6          3.755    -0.129    23.027     6.842
     4   1          0.924     0.089     1.890     2.150
     5   1          0.925     0.076     2.021     2.223
     6   1          0.925     0.064     2.151     2.293
     7   6          3.818     0.107    18.807     6.172
     8   6          3.810    -0.073    21.880     6.658
     9   1          0.924     0.040     2.455     2.450
    10   1          0.925     0.069     2.098     2.265
    11   6          3.788     0.132    18.449     6.117
    12   8          1.654    -0.487    22.611     6.419
    13   1          0.808     0.334     0.627     1.243
    14   6          3.912     0.012    20.319     6.407
    15   6          3.767    -0.130    23.038     6.841
    16   1          0.926     0.045     2.379     2.412
    17   1          0.925     0.058     2.217     2.328
    18   1          0.924     0.077     2.011     2.217
    19   6          3.761    -0.119    22.821     6.810
    20   1          0.925     0.076     2.020     2.223
    21   1          0.925     0.035     2.510     2.478
    22   1          0.925     0.061     2.184     2.311
    23   6          3.755     0.092    19.104     6.232
    24   1          0.924     0.061     2.188     2.313
    25   8          1.710    -0.248    18.113     5.746
    26   6          2.729     0.358    20.931     7.490
    27   8          0.862    -0.436    22.416     6.348
    28   6          2.973    -0.025    28.625     8.776
    29   6          2.925    -0.017    28.428     8.744
    30   6          2.916    -0.023    28.570     8.765
    31   6          2.920    -0.017    28.423     8.743
    32   6          2.917    -0.023    28.581     8.767
    33   6          2.922    -0.032    28.788     8.799
    34   1          0.925     0.066     2.127     2.280
    35   1          0.925     0.046     2.374     2.409
    36   1          0.925     0.048     2.340     2.392
    37   1          0.925     0.050     2.317     2.380
    38   1          0.925     0.066     2.129     2.282
    39   6          3.850    -0.050    21.442     6.586
    40   1          0.925     0.067     2.121     2.277
    41   6          3.863     0.139    18.304     6.084
    42   6          4.035     0.075    19.249     6.232
    43   1          0.925     0.049     2.329     2.386
    44   1          0.924     0.058     2.227     2.334
    45   8          1.725    -0.335    19.605     5.978
    46   6          4.088     0.109    18.726     6.147
    47   6          3.804    -0.079    22.002     6.678
    48   1          0.924     0.074     2.039     2.233
    49   1          0.924     0.095     1.828     2.115
    50   6          3.772     0.120    18.647     6.153
    51   8          1.655    -0.456    21.973     6.328
    52   1          0.804     0.325     0.650     1.266
    53   1          0.923     0.036     2.508     2.477
    54   6          3.901    -0.021    20.891     6.497
    55   6          2.858     0.221    23.345     7.919
    56   8          0.858    -0.371    21.110     6.160
    57   6          3.751     0.082    19.267     6.260
    58   1          0.923     0.104     1.746     2.066
    59   8          1.706    -0.221    17.665     5.675
    60   6          2.699     0.364    20.818     7.468
    61   8          0.858    -0.412    21.930     6.279
    62   6          3.752    -0.158    23.622     6.931
    63   1          0.925     0.073     2.057     2.243
    64   1          0.925     0.087     1.906     2.159
    65   1          0.925     0.065     2.140     2.288
    66   6          3.758    -0.120    22.847     6.815
    67   1          0.925     0.038     2.472     2.459
    68   1          0.925     0.073     2.052     2.240
    69   1          0.924     0.081     1.974     2.197
    70   1          0.924     0.046     2.373     2.409
    71   8          1.709    -0.249    18.131     5.749
    72   6          2.737     0.366    20.794     7.466
    73   8          0.856    -0.442    22.542     6.366
    74   6          3.754    -0.157    23.600     6.927
    75   1          0.925     0.114     1.660     2.015
    76   1          0.925     0.069     2.097     2.265
    77   1          0.925     0.074     2.038     2.232
    78   1          0.925     0.084     1.940     2.178
    79   8          1.707    -0.228    17.786     5.694
    80   6          2.772     0.345    21.149     7.532
    81   8          0.857    -0.422    22.123     6.306
    82   6          3.737     0.083    19.272     6.265
    83   8          1.655    -0.442    21.677     6.285
    84   1          0.804     0.326     0.649     1.266
    85   1          0.924     0.060     2.201     2.320
    86   6          3.798     0.037    19.957     6.361
    87   7          2.693    -0.213    25.637     7.520
    88   6          2.758     0.273    22.385     7.748
    89   8          0.860    -0.441    22.521     6.363
    90   6          2.974    -0.018    28.449     8.749
    91   6          2.922    -0.030    28.760     8.794
    92   6          2.917    -0.028    28.692     8.784
    93   6          2.920    -0.024    28.599     8.770
    94   6          2.917    -0.026    28.643     8.776
    95   6          2.927    -0.019    28.485     8.753
    96   1          0.925     0.054     2.272     2.357
    97   1          0.925     0.042     2.424     2.435
    98   1          0.925     0.039     2.461     2.453
    99   1          0.925     0.037     2.491     2.468
   100   1          0.925     0.033     2.549     2.497
   101   1          0.860     0.202     1.094     1.638
   102   6          2.975    -0.001    28.041     8.686
   103   6          2.923    -0.038    28.947     8.823
   104   6          2.918    -0.032    28.791     8.799
   105   6          2.920    -0.028    28.699     8.785
   106   6          2.917    -0.025    28.629     8.774
   107   6          2.926    -0.032    28.795     8.800
   108   1          0.925     0.054     2.266     2.354
   109   1          0.925     0.042     2.424     2.435
   110   1          0.925     0.036     2.499     2.472
   111   1          0.925     0.029     2.607     2.525
   112   1          0.925     0.019     2.743     2.590
   113   1          0.925     0.074     2.045     2.236

 Mol. C6AA /au·bohr⁶  :     137906.836090
 Mol. C8AA /au·bohr⁸  :    3235923.858902
 Mol. α(0) /au        :        564.879591


Wiberg/Mayer (AO) data.
largest (>0.10) Wiberg bond orders for each atom

 ---------------------------------------------------------------------------
     #   Z sym  total        # sym  WBO       # sym  WBO       # sym  WBO
 ---------------------------------------------------------------------------
     1   6      3.968 --     2      1.801    14      0.991    57      0.962
     2   6      3.981 --     1      1.801     3      1.033     7      0.999
     3   6      3.988 --     2      1.033     6      0.976     5      0.970
                             4      0.936
     4   1      0.992 --     3      0.936
     5   1      0.994 --     3      0.970
     6   1      0.995 --     3      0.976
     7   6      3.907 --     2      0.999     8      0.964    78      0.933
                            79      0.907
     8   6      3.991 --    11      0.974    10      0.971     9      0.969
                             7      0.964
     9   1      0.998 --     8      0.969
    10   1      0.995 --     8      0.971
    11   6      3.960 --    12      1.000     8      0.974    23      0.954
                            14      0.933
    12   8      1.933 --    11      1.000    13      0.783
    13   1      0.888 --    12      0.783
    14   6      3.986 --    15      1.003     1      0.991    19      0.977
                            11      0.933
    15   6      3.989 --    14      1.003    17      0.972    18      0.969
                            16      0.943
    16   1      0.998 --    15      0.943
    17   1      0.996 --    15      0.972
    18   1      0.993 --    15      0.969
    19   6      3.987 --    21      0.982    22      0.979    20      0.977
                            14      0.977
    20   1      0.994 --    19      0.977
    21   1      0.999 --    19      0.982
    22   1      0.996 --    19      0.979
    23   6      3.910 --    39      0.966    11      0.954    24      0.948
                            25      0.913
    24   1      0.996 --    23      0.948
    25   8      2.355 --    26      1.175    23      0.913    27      0.163
    26   6      3.907 --    27      1.632    25      1.175    28      1.005
    27   8      2.043 --    26      1.632    25      0.163
    28   6      3.984 --    29      1.382    33      1.377    26      1.005
                            31      0.100
    29   6      3.986 --    30      1.454    28      1.382    38      0.964
                            32      0.106
    30   6      3.990 --    29      1.454    31      1.433    37      0.969
                            33      0.107
    31   6      3.989 --    30      1.433    32      1.431    36      0.970
                            28      0.100
    32   6      3.991 --    33      1.454    31      1.431    35      0.969
                            29      0.106
    33   6      3.987 --    32      1.454    28      1.377    34      0.952
                            30      0.107
    34   1      0.996 --    33      0.952
    35   1      0.997 --    32      0.969
    36   1      0.997 --    31      0.970
    37   1      0.997 --    30      0.969
    38   1      0.996 --    29      0.964
    39   6      3.986 --    54      0.975    41      0.969    23      0.966
                            40      0.943
    40   1      0.996 --    39      0.943
    41   6      3.920 --    42      0.977    39      0.969    46      0.953
                            71      0.920
    42   6      3.950 --    41      0.977    45      0.972    43      0.970
                            44      0.967
    43   1      0.997 --    42      0.970
    44   1      0.996 --    42      0.967
    45   8      2.022 --    42      0.972    46      0.955
    46   6      3.944 --    47      0.999    70      0.963    45      0.955
                            41      0.953
    47   6      3.985 --    46      0.999    50      0.982    48      0.968
                            49      0.959
    48   1      0.994 --    47      0.968
    49   1      0.991 --    47      0.959
    50   6      3.963 --    51      1.019    47      0.982    53      0.947
                            54      0.899
    51   8      1.953 --    50      1.019    52      0.820
    52   1      0.894 --    51      0.820
    53   1      0.999 --    50      0.947
    54   6      3.983 --    66      0.996    39      0.975    55      0.967
                            50      0.899
    55   6      3.917 --    56      1.755    57      0.975    54      0.967
    56   8      2.081 --    55      1.755
    57   6      3.938 --    55      0.975     1      0.962    59      0.936
                            58      0.896
    58   1      0.989 --    57      0.896
    59   8      2.366 --    60      1.159    57      0.936    61      0.155
    60   6      3.909 --    61      1.719    59      1.159    62      0.984
    61   8      2.004 --    60      1.719    59      0.155
    62   6      3.991 --    60      0.984    63      0.984    65      0.959
                            64      0.951
    63   1      0.995 --    62      0.984
    64   1      0.992 --    62      0.951
    65   1      0.996 --    62      0.959
    66   6      3.985 --    54      0.996    69      0.974    68      0.972
                            67      0.969
    67   1      0.998 --    66      0.969
    68   1      0.994 --    66      0.972
    69   1      0.993 --    66      0.974
    70   1      0.998 --    46      0.963
    71   8      2.350 --    72      1.162    41      0.920    73      0.164
    72   6      3.905 --    73      1.699    71      1.162    74      0.982
    73   8      2.000 --    72      1.699    71      0.164
    74   6      3.981 --    72      0.982    75      0.963    77      0.963
                            76      0.954
    75   1      0.986 --    74      0.963
    76   1      0.995 --    74      0.954
    77   1      0.994 --    74      0.963
    78   1      0.993 --     7      0.933
    79   8      2.382 --    80      1.187     7      0.907    81      0.169
    80   6      3.917 --    81      1.699    79      1.187    82      0.949
    81   8      2.035 --    80      1.699    79      0.169
    82   6      3.969 --    83      1.018    80      0.949    85      0.941
                            86      0.923
    83   8      1.954 --    82      1.018    84      0.846
    84   1      0.894 --    83      0.846
    85   1      0.995 --    82      0.941
    86   6      3.971 --    87      0.996   102      0.988   113      0.946
                            82      0.923
    87   7      3.412 --    88      1.226    86      0.996   101      0.895
                            89      0.186
    88   6      3.946 --    89      1.658    87      1.226    90      0.991
    89   8      1.995 --    88      1.658    87      0.186
    90   6      3.988 --    95      1.394    91      1.394    88      0.991
                            93      0.106
    91   6      3.991 --    92      1.446    90      1.394   100      0.967
                            94      0.109
    92   6      3.992 --    91      1.446    93      1.437    99      0.970
                            95      0.110
    93   6      3.991 --    92      1.437    94      1.435    98      0.971
                            90      0.106
    94   6      3.991 --    95      1.450    93      1.435    97      0.970
                            91      0.109
    95   6      3.989 --    94      1.450    90      1.394    96      0.967
                            92      0.110
    96   1      0.997 --    95      0.967
    97   1      0.998 --    94      0.970
    98   1      0.998 --    93      0.971
    99   1      0.998 --    92      0.970
   100   1      0.999 --    91      0.967
   101   1      0.958 --    87      0.895
   102   6      3.987 --   103      1.416   107      1.406    86      0.988
                           105      0.109
   103   6      3.992 --   104      1.440   102      1.416   112      0.958
                           106      0.110
   104   6      3.992 --   103      1.440   105      1.440   111      0.966
                           107      0.112
   105   6      3.991 --   104      1.440   106      1.437   110      0.971
                           102      0.109
   106   6      3.991 --   107      1.447   105      1.437   109      0.970
                           103      0.110
   107   6      3.989 --   106      1.447   102      1.406   108      0.966
                           104      0.112
   108   1      0.997 --   107      0.966
   109   1      0.998 --   106      0.970
   110   1      0.998 --   105      0.971
   111   1      0.999 --   104      0.966
   112   1      1.000 --   103      0.958
   113   1      0.994 --    86      0.946
 ---------------------------------------------------------------------------

Topologies differ in total number of bonds
Writing topology from bond orders to xtbtopo.mol

molecular dipole:
                 x           y           z       tot (Debye)
 q only:        2.589       2.717       2.183
   full:        2.946       3.006       2.575      12.540
molecular quadrupole (traceless):
                xx          xy          yy          xz          yz          zz
 q only:       17.122      -2.361       2.074     -22.240      -8.634     -19.196
  q+dip:       13.857      -1.745       5.014     -32.131      -5.185     -18.871
   full:       12.192      -3.950       8.938     -30.075      -9.112     -21.130


           -------------------------------------------------
          | TOTAL ENERGY             -186.500449124213 Eh   |
          | GRADIENT NORM               0.142090738403 Eh/α |
          | HOMO-LUMO GAP               2.501305953618 eV   |
           -------------------------------------------------

------------------------------------------------------------------------
 * finished run on 2025/11/19 at 16:52:17.799     
------------------------------------------------------------------------
 total:
 * wall-time:     0 d,  0 h,  0 min,  0.382 sec
 *  cpu-time:     0 d,  0 h,  0 min,  0.498 sec
 * ratio c/w:     1.302 speedup
 SCF:
 * wall-time:     0 d,  0 h,  0 min,  0.365 sec
 *  cpu-time:     0 d,  0 h,  0 min,  0.464 sec
 * ratio c/w:     1.270 speedup

