      -----------------------------------------------------------      
     |                   =====================                   |     
     |                           x T B                           |     
     |                   =====================                   |     
     |                         S. Grimme                         |     
     |          Mulliken Center for Theoretical Chemistry        |     
     |                    University of Bonn                     |     
      -----------------------------------------------------------      

   * xtb version 6.7.1 (c3fe6aa) compiled by 'daniel-wiczew@NEBULA' on 2025-11-19

   xtb is free software: you can redistribute it and/or modify it under
   the terms of the GNU Lesser General Public License as published by
   the Free Software Foundation, either version 3 of the License, or
   (at your option) any later version.
   
   xtb is distributed in the hope that it will be useful,
   but WITHOUT ANY WARRANTY; without even the implied warranty of
   MERCHANTABILITY or FITNESS FOR A PARTICULAR PURPOSE.  See the
   GNU Lesser General Public License for more details.
   
   Cite this work as:
   * C. Bannwarth, E. Caldeweyher, S. Ehlert, A. Hansen, P. Pracht,
     J. Seibert, S. Spicher, S. Grimme, WIREs Comput. Mol. Sci., 2020, 11,
     e01493. DOI: 10.1002/wcms.1493
   
   for GFN2-xTB:
   * C. Bannwarth, S. Ehlert and S. Grimme., J. Chem. Theory Comput., 2019,
     15, 1652-1671. DOI: 10.1021/acs.jctc.8b01176
   for GFN1-xTB:
   * S. Grimme, C. Bannwarth, P. Shushkov, J. Chem. Theory Comput., 2017,
     13, 1989-2009. DOI: 10.1021/acs.jctc.7b00118
   for GFN0-xTB:
   * P. Pracht, E. Caldeweyher, S. Ehlert, S. Grimme, ChemRxiv, 2019, preprint.
     DOI: 10.26434/chemrxiv.8326202.v1
   for GFN-FF:
   * S. Spicher and S. Grimme, Angew. Chem. Int. Ed., 2020, 59, 15665-15673.
     DOI: 10.1002/anie.202004239
   
   for ALPB and GBSA implicit solvation:
   * S. Ehlert, M. Stahn, S. Spicher, S. Grimme, J. Chem. Theory Comput.,
     2021, 17, 4250-4261. DOI: 10.1021/acs.jctc.1c00471
   
   for ddCOSMO and CPCM-X implicit solvation:
   * M. Stahn, S. Ehlert, S. Grimme, J. Phys. Chem. A,
     2023, XX, XXXX-XXXX. DOI: 10.1021/acs.jpca.3c04382
   
   for DFT-D4:
   * E. Caldeweyher, C. Bannwarth and S. Grimme, J. Chem. Phys., 2017,
     147, 034112. DOI: 10.1063/1.4993215
   * E. Caldeweyher, S. Ehlert, A. Hansen, H. Neugebauer, S. Spicher,
     C. Bannwarth and S. Grimme, J. Chem. Phys., 2019, 150, 154122.
     DOI: 10.1063/1.5090222
   * E. Caldeweyher, J.-M. Mewes, S. Ehlert and S. Grimme, Phys. Chem. Chem. Phys.
     2020, 22, 8499-8512. DOI: 10.1039/D0CP00502A
   
   for sTDA-xTB:
   * S. Grimme and C. Bannwarth, J. Chem. Phys., 2016, 145, 054103.
     DOI: 10.1063/1.4959605
   
   in the mass-spec context:
   * V. Asgeirsson, C. Bauer and S. Grimme, Chem. Sci., 2017, 8, 4879.
     DOI: 10.1039/c7sc00601b
   * J. Koopman and S. Grimme, ACS Omega 2019, 4, 12, 15120-15133.
     DOI: 10.1021/acsomega.9b02011
   
   for metadynamics refer to:
   * S. Grimme, J. Chem. Theory Comput., 2019, 155, 2847-2862
     DOI: 10.1021/acs.jctc.9b00143
   
   for SPH calculations refer to:
   * S. Spicher and S. Grimme, J. Chem. Theory Comput., 2021, 17, 1701-1714
     DOI: 10.1021/acs.jctc.0c01306
   
   for ONIOM refer to:
   * C. Plett, A. Katbashev, S. Ehlert, S. Grimme, M. Bursch,
     Phys. Chem. Chem. Phys., 2023, 25, 17860-17868. DOI: 10.1039/D3CP02178E
   
   for DIPRO refer to:
   * J. Kohn, N. Gildemeister, S. Grimme, D. Fazzi, A. Hansen,
     J. Chem. Phys. 159, 144106 (2023). DOI: 10.1063/5.0167484
   
   for PTB refer to:
   * S. Grimme, M. Mueller, A. Hansen, J. Chem. Phys., 2023, 158, 124111.
     DOI: 10.1063/5.0137838
   
   with help from (in alphabetical order)
   P. Atkinson, C. Bannwarth, F. Bohle, G. Brandenburg, E. Caldeweyher
   M. Checinski, S. Dohm, S. Ehlert, S. Ehrlich, I. Gerasimov, C. Hölzer
   A. Katbashev, J. Kohn, J. Koopman, C. Lavigne, S. Lehtola, F. März, M. Müller,
   F. Musil, H. Neugebauer, J. Pisarek, C. Plett, P. Pracht, F. Pultar,
   J. Seibert, P. Shushkov, S. Spicher, M. Stahn, M. Steiner, T. Strunk,
   J. Stückrath, T. Rose, and J. Unsleber
   
 * started run on 2025/11/19 at 17:25:21.984     
   ID    Z sym.   atoms
    1    6 C      1-3, 7, 8, 11, 14, 15, 19, 23, 26, 28-33, 39, 41, 42, 46,
                  47, 50, 54, 55, 57, 60, 62, 66, 72, 74, 80, 82, 86, 88,
                  90-95, 102-107
    2    1 H      4-6, 9, 10, 13, 16-18, 20-22, 24, 34-38, 40, 43, 44, 48,
                  49, 52, 53, 58, 63-65, 67-70, 75-78, 84, 85, 96-101, 108-113
    3    8 O      12, 25, 27, 45, 51, 56, 59, 61, 71, 73, 79, 81, 83, 89
    4    7 N      87

           -------------------------------------------------
          |                Calculation Setup                |
           -------------------------------------------------

          program call               : build/xtb /home/daniel-wiczew/build/xtb/assets/inputs/xyz/taxol.xyz --gfn2 --bhess
          coordinate file            : /home/daniel-wiczew/build/xtb/assets/inputs/xyz/taxol.xyz
          omp threads                :                     4


           -------------------------------------------------
          |                 G F N 2 - x T B                 |
           -------------------------------------------------

        Reference                      10.1021/acs.jctc.8b01176
      * Hamiltonian:
        H0-scaling (s, p, d)           1.850000    2.230000    2.230000
        zeta-weighting                 0.500000
      * Dispersion:
        s8                             2.700000
        a1                             0.520000
        a2                             5.000000
        s9                             5.000000
      * Repulsion:
        kExp                           1.500000    1.000000
        rExp                           1.000000
      * Coulomb:
        alpha                          2.000000
        third order                    shell-resolved
        anisotropic                    true
        a3                             3.000000
        a5                             4.000000
        cn-shift                       1.200000
        cn-exp                         4.000000
        max-rad                        5.000000

q/qsh data taken from xtbrestart
CAMM data taken from xtbrestart

          ...................................................
          :                      SETUP                      :
          :.................................................:
          :  # basis functions                 299          :
          :  # atomic orbitals                 299          :
          :  # shells                          175          :
          :  # electrons                       328          :
          :  max. iterations                   250          :
          :  Hamiltonian                  GFN2-xTB          :
          :  restarted?                       true          :
          :  GBSA solvation                  false          :
          :  PC potential                    false          :
          :  electronic temp.          300.0000000     K    :
          :  accuracy                    1.0000000          :
          :  -> integral cutoff          0.2500000E+02      :
          :  -> integral neglect         0.1000000E-07      :
          :  -> SCF convergence          0.1000000E-05 Eh   :
          :  -> wf. convergence          0.1000000E-03 e    :
          :  Broyden damping             0.4000000          :
          :  net charge                          0          :
          :  unpaired electrons                  0          :
          ...................................................

 iter      E             dE          RMSdq      gap      omega  full diag
   1   -188.8096683 -0.188810E+03  0.126E-04    2.50       0.0  T
   2   -188.8096683 -0.456282E-09  0.845E-05    2.50     111.4  T
   3   -188.8096683 -0.300076E-09  0.534E-05    2.50     176.1  T

   *** convergence criteria satisfied after 3 iterations ***

         #    Occupation            Energy/Eh            Energy/eV
      -------------------------------------------------------------
         1        2.0000           -0.8001947             -21.7744
       ...           ...                  ...                  ...
       158        2.0000           -0.4213475             -11.4654
       159        2.0000           -0.4206052             -11.4452
       160        2.0000           -0.4170701             -11.3491
       161        2.0000           -0.4148169             -11.2877
       162        2.0000           -0.4135365             -11.2529
       163        2.0000           -0.4038478             -10.9893
       164        2.0000           -0.3987808             -10.8514 (HOMO)
       165                         -0.3068578              -8.3500 (LUMO)
       166                         -0.2921302              -7.9493
       167                         -0.2740399              -7.4570
       168                         -0.2652050              -7.2166
       169                         -0.2611433              -7.1061
       ...                                ...                  ...
       299                          0.6614396              17.9987
      -------------------------------------------------------------
                  HL-Gap            0.0919230 Eh            2.5014 eV
             Fermi-level           -0.3528193 Eh           -9.6007 eV

 SCC (total)                   0 d,  0 h,  0 min,  0.134 sec
 SCC setup                      ...        0 min,  0.001 sec (  0.580%)
 Dispersion                     ...        0 min,  0.002 sec (  1.312%)
 classical contributions        ...        0 min,  0.000 sec (  0.146%)
 integral evaluation            ...        0 min,  0.011 sec (  8.557%)
 iterations                     ...        0 min,  0.088 sec ( 65.332%)
 molecular gradient             ...        0 min,  0.027 sec ( 20.126%)
 printout                       ...        0 min,  0.005 sec (  3.940%)

         :::::::::::::::::::::::::::::::::::::::::::::::::::::
         ::                     SUMMARY                     ::
         :::::::::::::::::::::::::::::::::::::::::::::::::::::
         :: total energy            -186.500449129759 Eh    ::
         :: gradient norm              0.142094951692 Eh/a0 ::
         :: HOMO-LUMO gap              2.501351853783 eV    ::
         ::.................................................::
         :: SCC energy              -188.798381929792 Eh    ::
         :: -> isotropic ES            0.336320405885 Eh    ::
         :: -> anisotropic ES         -0.000859864091 Eh    ::
         :: -> anisotropic XC          0.039432541895 Eh    ::
         :: -> dispersion             -0.169331509974 Eh    ::
         :: repulsion energy           2.297932800033 Eh    ::
         :: add. restraining           0.000000000000 Eh    ::
         :: total charge              -0.000000000000 e     ::
         :::::::::::::::::::::::::::::::::::::::::::::::::::::

metadynamics with 1 initial structures loaded
           -------------------------------------------------
          |           Optimal kpush determination           |
           -------------------------------------------------
      ----------------------------------------------------------- 
     |                   =====================                   |
     |                        A N C O P T                        |
     |                   =====================                   |
     |               Approximate Normal Coordinate               |
     |                Rational Function Optimizer                |
      ----------------------------------------------------------- 
target rmsd / Å         0.100000
unbiased initial rmsd   0.464330

iter. min.        max.        rmsd       kpush
      ----------------------------------------------------------- 
     |                   =====================                   |
     |                        A N C O P T                        |
     |                   =====================                   |
     |               Approximate Normal Coordinate               |
     |                Rational Function Optimizer                |
      ----------------------------------------------------------- 
 1    0.000000    5.136364    0.020430   -2.568182
      ----------------------------------------------------------- 
     |                   =====================                   |
     |                        A N C O P T                        |
     |                   =====================                   |
     |               Approximate Normal Coordinate               |
     |                Rational Function Optimizer                |
      ----------------------------------------------------------- 
 2    0.000000    2.568182    0.028993   -1.284091
      ----------------------------------------------------------- 
     |                   =====================                   |
     |                        A N C O P T                        |
     |                   =====================                   |
     |               Approximate Normal Coordinate               |
     |                Rational Function Optimizer                |
      ----------------------------------------------------------- 
 3    0.000000    1.284091    0.040158   -0.642045
      ----------------------------------------------------------- 
     |                   =====================                   |
     |                        A N C O P T                        |
     |                   =====================                   |
     |               Approximate Normal Coordinate               |
     |                Rational Function Optimizer                |
      ----------------------------------------------------------- 
 4    0.000000    0.642045    0.054482   -0.321023
      ----------------------------------------------------------- 
     |                   =====================                   |
     |                        A N C O P T                        |
     |                   =====================                   |
     |               Approximate Normal Coordinate               |
     |                Rational Function Optimizer                |
      ----------------------------------------------------------- 
 5    0.000000    0.321023    0.071913   -0.160511
      ----------------------------------------------------------- 
     |                   =====================                   |
     |                        A N C O P T                        |
     |                   =====================                   |
     |               Approximate Normal Coordinate               |
     |                Rational Function Optimizer                |
      ----------------------------------------------------------- 
 6    0.000000    0.160511    0.093778   -0.080256
      ----------------------------------------------------------- 
     |                   =====================                   |
     |                        A N C O P T                        |
     |                   =====================                   |
     |               Approximate Normal Coordinate               |
     |                Rational Function Optimizer                |
      ----------------------------------------------------------- 
 7    0.000000    0.080256    0.123783   -0.040128
      ----------------------------------------------------------- 
     |                   =====================                   |
     |                        A N C O P T                        |
     |                   =====================                   |
     |               Approximate Normal Coordinate               |
     |                Rational Function Optimizer                |
      ----------------------------------------------------------- 
 8    0.040128    0.080256    0.104876   -0.060192
      ----------------------------------------------------------- 
     |                   =====================                   |
     |                        A N C O P T                        |
     |                   =====================                   |
     |               Approximate Normal Coordinate               |
     |                Rational Function Optimizer                |
      ----------------------------------------------------------- 
 9    0.060192    0.080256    0.098638   -0.070224
      ----------------------------------------------------------- 
     |                   =====================                   |
     |                        A N C O P T                        |
     |                   =====================                   |
     |               Approximate Normal Coordinate               |
     |                Rational Function Optimizer                |
      ----------------------------------------------------------- 
10    0.060192    0.070224    0.101678   -0.065208
final kpush: -0.065208
           -------------------------------------------------
          |            Biased Numerical Hessian             |
           -------------------------------------------------
kpush                :  -0.06521
alpha                :   1.00000
step length          :   0.00500
SCC accuracy         :   0.30000
Hessian scale factor :   1.00000
frozen atoms in %    :   0.00000    0
RMS gradient         :   0.00064
estimated CPU  time      3.41 min
estimated wall time      0.85 min

writing file <hessian>, containing the non-mass-weighted Hessian matrix in atomic units (Eₕ/Bohr²).

writing file <hessian_sph>.

 projected vibrational frequencies (cm⁻¹)
eigval :       -0.00    -0.00     0.00     0.00     0.00     0.00
eigval :       60.21    64.30    66.60    68.73    71.94    73.36
eigval :       76.78    77.99    80.92    83.05    86.02    87.52
eigval :       90.93    95.26    98.48   105.58   109.13   111.68
eigval :      112.01   117.58   122.03   123.11   126.49   128.94
eigval :      134.61   141.66   150.09   166.49   168.04   169.76
eigval :      177.38   180.88   187.14   192.97   199.28   207.12
eigval :      214.77   219.71   221.52   228.64   233.52   242.05
eigval :      249.10   252.12   257.37   264.71   267.51   274.46
eigval :      284.60   287.72   293.83   300.59   307.22   308.70
eigval :      316.43   320.36   326.42   330.95   338.83   340.43
eigval :      344.94   350.46   359.45   365.10   366.82   370.25
eigval :      379.97   380.66   382.61   387.75   392.64   397.56
eigval :      401.37   404.67   412.71   415.89   420.59   426.82
eigval :      429.97   437.40   442.20   458.54   478.97   487.68
eigval :      494.51   508.31   513.85   521.30   524.37   532.83
eigval :      545.32   548.16   558.12   561.19   574.84   587.32
eigval :      589.04   591.64   592.05   593.58   601.11   618.32
eigval :      620.26   624.44   644.36   653.32   654.78   657.54
eigval :      666.02   669.05   673.52   683.38   696.77   699.13
eigval :      700.12   732.38   733.02   747.02   759.66   773.01
eigval :      774.93   781.78   783.49   788.85   790.72   813.06
eigval :      835.47   848.62   852.17   858.74   868.81   889.77
eigval :      890.68   894.34   895.20   904.31   912.99   917.30
eigval :      924.35   930.72   932.47   939.88   942.10   943.07
eigval :      945.59   945.98   947.40   949.50   952.76   966.24
eigval :      970.60   979.67   982.80   985.46   988.05   993.79
eigval :     1003.96  1012.03  1014.30  1014.58  1017.00  1019.16
eigval :     1019.53  1024.86  1029.38  1033.22  1046.06  1053.07
eigval :     1055.99  1062.69  1072.63  1078.37  1083.60  1084.25
eigval :     1085.74  1086.80  1090.67  1091.51  1098.09  1104.77
eigval :     1107.00  1113.03  1116.98  1123.20  1128.09  1129.86
eigval :     1133.96  1135.81  1136.85  1151.99  1156.53  1158.83
eigval :     1163.22  1168.05  1174.83  1181.32  1186.76  1188.79
eigval :     1188.95  1189.94  1190.36  1190.32  1193.43  1196.64
eigval :     1199.58  1202.36  1205.31  1205.80  1219.80  1227.58
eigval :     1230.88  1232.75  1238.15  1240.42  1242.10  1248.81
eigval :     1251.72  1268.85  1273.63  1279.80  1284.31  1285.55
eigval :     1285.78  1288.80  1291.53  1296.45  1303.45  1309.73
eigval :     1314.82  1319.52  1320.56  1323.94  1326.16  1329.03
eigval :     1329.30  1333.98  1336.27  1346.29  1351.72  1356.69
eigval :     1367.16  1380.94  1390.60  1399.39  1405.89  1412.95
eigval :     1423.99  1425.34  1434.08  1434.34  1441.48  1443.12
eigval :     1447.83  1456.78  1460.01  1461.68  1465.29  1470.85
eigval :     1474.07  1475.53  1475.10  1477.23  1488.55  1493.40
eigval :     1505.42  1509.91  1519.23  1524.37  1531.17  1582.71
eigval :     1585.48  1590.68  1593.63  1597.57  1603.13  1654.14
eigval :     1702.18  1704.81  1711.23  1763.08  1771.34  1773.12
eigval :     2855.34  2861.99  2892.68  2898.47  2929.21  2944.11
eigval :     2954.01  2976.99  2979.37  2982.02  2990.05  2994.57
eigval :     3007.79  3018.72  3022.43  3024.30  3026.01  3031.08
eigval :     3034.30  3035.03  3040.19  3046.93  3050.00  3053.34
eigval :     3054.25  3057.02  3065.42  3068.59  3072.94  3076.80
eigval :     3083.75  3084.40  3085.21  3086.83  3087.31  3090.09
eigval :     3093.47  3093.73  3096.39  3096.87  3100.50  3101.96
eigval :     3102.79  3107.20  3112.41  3151.93  3167.08  3369.71
eigval :     3375.47  3383.16  3435.52
           -------------------------------------------------
          |                Property Printout                |
           -------------------------------------------------

    * Orbital Energies and Occupations

         #    Occupation            Energy/Eh            Energy/eV
      -------------------------------------------------------------
         1        2.0000           -0.7815483             -21.2670
       ...           ...                  ...                  ...
       152        2.0000           -0.4383200             -11.9273
       153        2.0000           -0.4283997             -11.6573
       154        2.0000           -0.4273727             -11.6294
       155        2.0000           -0.4258883             -11.5890
       156        2.0000           -0.4241212             -11.5409
       157        2.0000           -0.4233013             -11.5186
       158        2.0000           -0.4212996             -11.4641
       159        2.0000           -0.4187398             -11.3945
       160        2.0000           -0.4140441             -11.2667
       161        2.0000           -0.4131313             -11.2419
       162        2.0000           -0.4085963             -11.1185
       163        2.0000           -0.4068792             -11.0717
       164        2.0000           -0.4047610             -11.0141 (HOMO)
       165                         -0.3026834              -8.2364 (LUMO)
       166                         -0.2849584              -7.7541
       167                         -0.2692715              -7.3273
       168                         -0.2647024              -7.2029
       169                         -0.2579231              -7.0184
       170                         -0.2578515              -7.0165
       171                         -0.2460425              -6.6952
       172                         -0.2451738              -6.6715
       173                         -0.2439839              -6.6391
       174                         -0.2413091              -6.5664
       175                         -0.2235829              -6.0840
       ...                                ...                  ...
       299                          0.6572247              17.8840
      -------------------------------------------------------------
                  HL-Gap            0.1020777 Eh            2.7777 eV
             Fermi-level           -0.3537222 Eh           -9.6253 eV

     #   Z          covCN         q      C6AA      α(0)
     1   6          2.962    -0.049    29.214     8.865
     2   6          2.962    -0.006    28.175     8.706
     3   6          3.756    -0.123    22.905     6.824
     4   1          0.924     0.080     1.976     2.198
     5   1          0.925     0.076     2.023     2.224
     6   1          0.925     0.064     2.155     2.296
     7   6          3.768     0.107    18.860     6.189
     8   6          3.808    -0.072    21.879     6.658
     9   1          0.924     0.046     2.367     2.406
    10   1          0.924     0.068     2.112     2.273
    11   6          3.779     0.134    18.435     6.117
    12   8          1.656    -0.458    22.017     6.334
    13   1          0.804     0.323     0.657     1.273
    14   6          3.903     0.010    20.355     6.413
    15   6          3.765    -0.126    22.961     6.830
    16   1          0.926     0.046     2.365     2.405
    17   1          0.925     0.057     2.238     2.339
    18   1          0.925     0.070     2.083     2.257
    19   6          3.760    -0.118    22.813     6.809
    20   1          0.925     0.072     2.058     2.244
    21   1          0.925     0.036     2.502     2.474
    22   1          0.925     0.059     2.209     2.324
    23   6          3.727     0.090    19.180     6.253
    24   1          0.924     0.060     2.199     2.319
    25   8          1.703    -0.275    18.568     5.818
    26   6          2.711     0.354    20.983     7.498
    27   8          0.857    -0.434    22.364     6.340
    28   6          2.973    -0.021    28.530     8.761
    29   6          2.924    -0.017    28.437     8.745
    30   6          2.918    -0.023    28.590     8.768
    31   6          2.920    -0.018    28.447     8.746
    32   6          2.918    -0.024    28.606     8.771
    33   6          2.921    -0.029    28.715     8.787
    34   1          0.926     0.068     2.109     2.271
    35   1          0.926     0.045     2.381     2.413
    36   1          0.926     0.048     2.344     2.394
    37   1          0.926     0.050     2.325     2.385
    38   1          0.926     0.066     2.132     2.283
    39   6          3.842    -0.048    21.399     6.581
    40   1          0.925     0.065     2.136     2.286
    41   6          3.832     0.138    18.329     6.091
    42   6          4.035     0.082    19.141     6.215
    43   1          0.924     0.047     2.360     2.402
    44   1          0.924     0.052     2.299     2.371
    45   8          1.738    -0.327    19.470     5.958
    46   6          4.085     0.111    18.691     6.141
    47   6          3.805    -0.079    22.013     6.679
    48   1          0.925     0.072     2.059     2.244
    49   1          0.924     0.094     1.844     2.124
    50   6          3.750     0.122    18.650     6.159
    51   8          1.659    -0.435    21.530     6.264
    52   1          0.804     0.315     0.676     1.292
    53   1          0.923     0.033     2.546     2.495
    54   6          3.891    -0.023    20.927     6.503
    55   6          2.840     0.219    23.380     7.924
    56   8          0.857    -0.370    21.092     6.157
    57   6          3.737     0.084    19.265     6.263
    58   1          0.923     0.098     1.800     2.098
    59   8          1.703    -0.264    18.370     5.787
    60   6          2.689     0.365    20.805     7.465
    61   8          0.857    -0.378    21.252     6.181
    62   6          3.753    -0.155    23.552     6.920
    63   1          0.925     0.072     2.064     2.247
    64   1          0.925     0.091     1.868     2.137
    65   1          0.925     0.072     2.064     2.247
    66   6          3.756    -0.115    22.758     6.802
    67   1          0.925     0.038     2.470     2.458
    68   1          0.925     0.069     2.102     2.267
    69   1          0.925     0.079     1.990     2.206
    70   1          0.924     0.042     2.425     2.435
    71   8          1.704    -0.283    18.693     5.837
    72   6          2.706     0.365    20.803     7.465
    73   8          0.856    -0.418    22.050     6.296
    74   6          3.754    -0.154    23.539     6.918
    75   1          0.925     0.114     1.664     2.018
    76   1          0.925     0.072     2.064     2.247
    77   1          0.925     0.082     1.963     2.191
    78   1          0.924     0.080     1.982     2.201
    79   8          1.703    -0.259    18.293     5.775
    80   6          2.720     0.343    21.179     7.534
    81   8          0.856    -0.406    21.798     6.260
    82   6          3.728     0.086    19.252     6.264
    83   8          1.656    -0.428    21.403     6.245
    84   1          0.804     0.322     0.658     1.275
    85   1          0.923     0.062     2.176     2.307
    86   6          3.790     0.032    20.048     6.377
    87   7          2.689    -0.203    25.405     7.486
    88   6          2.756     0.272    22.410     7.752
    89   8          0.860    -0.441    22.523     6.363
    90   6          2.976    -0.017    28.419     8.744
    91   6          2.921    -0.030    28.761     8.794
    92   6          2.919    -0.028    28.695     8.784
    93   6          2.920    -0.024    28.609     8.771
    94   6          2.919    -0.026    28.643     8.776
    95   6          2.926    -0.020    28.495     8.754
    96   1          0.926     0.055     2.261     2.351
    97   1          0.926     0.043     2.415     2.430
    98   1          0.926     0.040     2.448     2.447
    99   1          0.926     0.038     2.482     2.463
   100   1          0.926     0.034     2.525     2.485
   101   1          0.860     0.198     1.118     1.656
   102   6          2.973    -0.001    28.060     8.689
   103   6          2.923    -0.037    28.928     8.820
   104   6          2.920    -0.030    28.761     8.795
   105   6          2.920    -0.029    28.714     8.787
   106   6          2.919    -0.026    28.652     8.778
   107   6          2.925    -0.035    28.863     8.810
   108   1          0.926     0.050     2.324     2.384
   109   1          0.926     0.041     2.430     2.438
   110   1          0.926     0.037     2.492     2.469
   111   1          0.926     0.030     2.582     2.513
   112   1          0.926     0.025     2.655     2.548
   113   1          0.924     0.073     2.052     2.240

 Mol. C6AA /au·bohr⁶  :     137917.471201
 Mol. C8AA /au·bohr⁸  :    3235523.186542
 Mol. α(0) /au        :        564.950014


Wiberg/Mayer (AO) data.
largest (>0.10) Wiberg bond orders for each atom

 ---------------------------------------------------------------------------
     #   Z sym  total        # sym  WBO       # sym  WBO       # sym  WBO
 ---------------------------------------------------------------------------
     1   6      3.969 --     2      1.802    14      0.992    57      0.964
     2   6      3.981 --     1      1.802     3      1.037     7      0.998
     3   6      3.989 --     2      1.037     6      0.975     5      0.970
                             4      0.943
     4   1      0.993 --     3      0.943
     5   1      0.994 --     3      0.970
     6   1      0.995 --     3      0.975
     7   6      3.910 --     2      0.998     8      0.969    78      0.937
                            79      0.909
     8   6      3.991 --    11      0.972    10      0.971     9      0.969
                             7      0.969
     9   1      0.998 --     8      0.969
    10   1      0.995 --     8      0.971
    11   6      3.953 --    12      1.003     8      0.972    23      0.947
                            14      0.930
    12   8      1.961 --    11      1.003    13      0.836
    13   1      0.895 --    12      0.836
    14   6      3.986 --    15      1.004     1      0.992    19      0.977
                            11      0.930
    15   6      3.990 --    14      1.004    17      0.974    18      0.972
                            16      0.948
    16   1      0.998 --    15      0.948
    17   1      0.997 --    15      0.974
    18   1      0.994 --    15      0.972
    19   6      3.988 --    21      0.983    22      0.980    20      0.978
                            14      0.977
    20   1      0.994 --    19      0.978
    21   1      0.999 --    19      0.983
    22   1      0.996 --    19      0.980
    23   6      3.912 --    39      0.967    24      0.953    11      0.947
                            25      0.921
    24   1      0.996 --    23      0.953
    25   8      2.312 --    26      1.129    23      0.921    27      0.165
    26   6      3.908 --    27      1.674    25      1.129    28      1.014
    27   8      2.029 --    26      1.674    25      0.165
    28   6      3.985 --    29      1.381    33      1.376    26      1.014
                            31      0.101
    29   6      3.986 --    30      1.455    28      1.381    38      0.965
                            32      0.106
    30   6      3.990 --    29      1.455    31      1.433    37      0.969
                            33      0.107
    31   6      3.989 --    30      1.433    32      1.430    36      0.970
                            28      0.101
    32   6      3.992 --    33      1.456    31      1.430    35      0.970
                            29      0.106
    33   6      3.987 --    32      1.456    28      1.376    34      0.956
                            30      0.107
    34   1      0.995 --    33      0.956
    35   1      0.998 --    32      0.970
    36   1      0.997 --    31      0.970
    37   1      0.997 --    30      0.969
    38   1      0.996 --    29      0.965
    39   6      3.986 --    54      0.974    41      0.967    23      0.967
                            40      0.948
    40   1      0.996 --    39      0.948
    41   6      3.922 --    42      0.976    39      0.967    46      0.953
                            71      0.929
    42   6      3.951 --    45      0.978    41      0.976    43      0.968
                            44      0.966
    43   1      0.997 --    42      0.968
    44   1      0.997 --    42      0.966
    45   8      2.034 --    42      0.978    46      0.959
    46   6      3.944 --    47      0.999    70      0.962    45      0.959
                            41      0.953
    47   6      3.986 --    46      0.999    50      0.981    48      0.969
                            49      0.961
    48   1      0.994 --    47      0.969
    49   1      0.991 --    47      0.961
    50   6      3.959 --    51      1.025    47      0.981    53      0.950
                            54      0.890
    51   8      1.981 --    50      1.025    52      0.854
    52   1      0.900 --    51      0.854
    53   1      0.999 --    50      0.950
    54   6      3.982 --    66      0.999    39      0.974    55      0.965
                            50      0.890
    55   6      3.915 --    56      1.788    54      0.965    57      0.965
    56   8      2.071 --    55      1.788
    57   6      3.940 --    55      0.965     1      0.964    59      0.941
                            58      0.905
    58   1      0.990 --    57      0.905
    59   8      2.304 --    60      1.089    57      0.941    61      0.155
    60   6      3.909 --    61      1.774    59      1.089    62      0.996
    61   8      2.061 --    60      1.774    59      0.155
    62   6      3.991 --    60      0.996    63      0.982    65      0.957
                            64      0.950
    63   1      0.995 --    62      0.982
    64   1      0.992 --    62      0.950
    65   1      0.995 --    62      0.957
    66   6      3.986 --    54      0.999    69      0.976    68      0.974
                            67      0.972
    67   1      0.998 --    66      0.972
    68   1      0.995 --    66      0.974
    69   1      0.993 --    66      0.976
    70   1      0.998 --    46      0.962
    71   8      2.298 --    72      1.105    41      0.929    73      0.163
    72   6      3.906 --    73      1.743    71      1.105    74      0.998
    73   8      2.034 --    72      1.743    71      0.163
    74   6      3.982 --    72      0.998    75      0.961    76      0.960
                            77      0.954
    75   1      0.987 --    74      0.961
    76   1      0.995 --    74      0.960
    77   1      0.993 --    74      0.954
    78   1      0.993 --     7      0.937
    79   8      2.334 --    80      1.156     7      0.909    81      0.172
    80   6      3.917 --    81      1.737    79      1.156    82      0.944
    81   8      2.055 --    80      1.737    79      0.172
    82   6      3.966 --    83      1.026    80      0.944    85      0.943
                            86      0.911
    83   8      1.975 --    82      1.026    84      0.860
    84   1      0.896 --    83      0.860
    85   1      0.995 --    82      0.943
    86   6      3.970 --    87      1.001   102      0.986   113      0.948
                            82      0.911
    87   7      3.416 --    88      1.221    86      1.001   101      0.911
                            89      0.186
    88   6      3.945 --    89      1.660    87      1.221    90      0.992
    89   8      1.996 --    88      1.660    87      0.186
    90   6      3.988 --    95      1.396    91      1.393    88      0.992
                            93      0.107
    91   6      3.991 --    92      1.448    90      1.393   100      0.968
                            94      0.109
    92   6      3.992 --    91      1.448    93      1.436    99      0.970
                            95      0.110
    93   6      3.992 --    92      1.436    94      1.436    98      0.971
                            90      0.107
    94   6      3.992 --    95      1.449    93      1.436    97      0.970
                            91      0.109
    95   6      3.989 --    94      1.449    90      1.396    96      0.968
                            92      0.110
    96   1      0.997 --    95      0.968
    97   1      0.998 --    94      0.970
    98   1      0.998 --    93      0.971
    99   1      0.998 --    92      0.970
   100   1      0.999 --    91      0.968
   101   1      0.960 --    87      0.911
   102   6      3.987 --   103      1.416   107      1.407    86      0.986
                           105      0.109
   103   6      3.992 --   104      1.441   102      1.416   112      0.962
                           106      0.110
   104   6      3.993 --   105      1.441   103      1.441   111      0.967
                           107      0.112
   105   6      3.991 --   104      1.441   106      1.437   110      0.971
                           102      0.109
   106   6      3.991 --   107      1.448   105      1.437   109      0.970
                           103      0.110
   107   6      3.990 --   106      1.448   102      1.407   108      0.967
                           104      0.112
   108   1      0.997 --   107      0.967
   109   1      0.998 --   106      0.970
   110   1      0.998 --   105      0.971
   111   1      0.999 --   104      0.967
   112   1      0.999 --   103      0.962
   113   1      0.994 --    86      0.948
 ---------------------------------------------------------------------------

Topologies differ in total number of bonds
Writing topology from bond orders to xtbtopo.mol

molecular dipole:
                 x           y           z       tot (Debye)
 q only:        2.684       2.249       2.021
   full:        3.011       2.541       2.454      11.797
molecular quadrupole (traceless):
                xx          xy          yy          xz          yz          zz
 q only:       18.200       3.659       0.182     -17.788      -8.932     -18.382
  q+dip:       15.471       5.193       1.858     -26.628      -5.486     -17.329
   full:       13.456       3.014       6.121     -24.522      -9.642     -19.577

           -------------------------------------------------
          |                Geometry Summary                 |
           -------------------------------------------------

      molecular mass/u    :      853.9079376
   center of mass at/Å    :        0.0005641      -0.0514338      -0.0777293
  moments of inertia/u·Å² :        0.8778118E+04   0.1465077E+05   0.1657377E+05
rotational constants/cm⁻¹ :        0.1920415E-02   0.1150631E-02   0.1017127E-02

 * 98 selected distances

     #   Z          #   Z                                           value/Å
     1   6          2   6                                         1.3426054
     3   6          4   1                                         1.0930562
     3   6          5   1                                         1.0862336
     3   6          6   1                                         1.0856268
     7   6          8   6                                         1.5342639
     8   6          9   1                                         1.0910409
     8   6         10   1                                         1.0918841
    11   6         12   8                                         1.4099009
    12   8         13   1                                         0.9713054
    14   6         15   6                                         1.5296992
    15   6         16   1                                         1.0781384
    15   6         17   1                                         1.0828708
    15   6         18   1                                         1.0892915
    19   6         20   1                                         1.0847246
    19   6         21   1                                         1.0869811
    19   6         22   1                                         1.0862987
    23   6         24   1                                         1.0959516
    23   6         25   8                                         1.4441952
    25   8         26   6                                         1.3344089
    26   6         27   8                                         1.2134640
    28   6         29   6                                         1.3941875
    29   6         30   6                                         1.3816844
    30   6         31   6                                         1.3865752
    31   6         32   6                                         1.3863093
    28   6         33   6                                         1.3946904
    32   6         33   6                                         1.3818493
    33   6         34   1                                         1.0764169
    32   6         35   1                                         1.0796487
    31   6         36   1                                         1.0795448
    30   6         37   1                                         1.0791029
    29   6         38   1                                         1.0792492
    39   6         40   1                                         1.0896016
    41   6         42   6                                         1.5388705
    42   6         43   1                                         1.0902292
    42   6         44   1                                         1.0931600
    42   6         45   8                                         1.4200175
    41   6         46   6                                         1.5480283 (max)
    45   8         46   6                                         1.4329724
    46   6         47   6                                         1.5095745
    47   6         48   1                                         1.0888568
    47   6         49   1                                         1.0902258
    47   6         50   6                                         1.5272417
    50   6         51   8                                         1.3955801
    51   8         52   1                                         0.9687284 (min)
    50   6         53   1                                         1.1018140
    55   6         56   8                                         1.2130387
    57   6         58   1                                         1.1016507
    57   6         59   8                                         1.4248971
    59   8         60   6                                         1.3477396
    60   6         61   8                                         1.1996420
    62   6         63   1                                         1.0858635
    62   6         64   1                                         1.0872289
    62   6         65   1                                         1.0863724
    54   6         66   6                                         1.5313610
    66   6         67   1                                         1.0873442
    66   6         68   1                                         1.0843817
    66   6         69   1                                         1.0878045
    46   6         70   1                                         1.0973320
    41   6         71   8                                         1.4287612
    71   8         72   6                                         1.3448360
    72   6         73   8                                         1.2036887
    74   6         75   1                                         1.0872899
    74   6         76   1                                         1.0878146
    74   6         77   1                                         1.0878864
     7   6         78   1                                         1.0910928
     7   6         79   8                                         1.4362652
    79   8         80   6                                         1.3248718
    80   6         81   8                                         1.2051540
    82   6         83   8                                         1.3920602
    83   8         84   1                                         0.9728935
    82   6         85   1                                         1.0988862
    86   6         87   7                                         1.4394285
    87   7         88   6                                         1.3585891
    88   6         89   8                                         1.2184728
    90   6         91   6                                         1.3916273
    91   6         92   6                                         1.3830740
    92   6         93   6                                         1.3854389
    93   6         94   6                                         1.3855816
    90   6         95   6                                         1.3909516
    94   6         95   6                                         1.3815887
    95   6         96   1                                         1.0795591
    94   6         97   1                                         1.0794279
    93   6         98   1                                         1.0796274
    92   6         99   1                                         1.0798747
    91   6        100   1                                         1.0806364
    87   7        101   1                                         1.0142839
   102   6        103   6                                         1.3876996
   103   6        104   6                                         1.3839984
   104   6        105   6                                         1.3835298
   105   6        106   6                                         1.3845558
   102   6        107   6                                         1.3903365
   106   6        107   6                                         1.3830666
   107   6        108   1                                         1.0794193
   106   6        109   1                                         1.0795119
   105   6        110   1                                         1.0795388
   104   6        111   1                                         1.0789001
   103   6        112   1                                         1.0795911
    86   6        113   1                                         1.0952265

 * 6 distinct bonds (by element types)

   Z      Z             #   av. dist./Å        max./Å        min./Å
   1 H    6 C          47     1.0864300     1.1018140     1.0764169
   6 C    6 C          26     1.4237842     1.5480283     1.3426054
   1 H    7 N           1     1.0142839     1.0142839     1.0142839
   6 C    7 N           2     1.3990088     1.4394285     1.3585891
   1 H    8 O           3     0.9709758     0.9728935     0.9687284
   6 C    8 O          19     1.3363140     1.4441952     1.1996420

           -------------------------------------------------
          |               Frequency Printout                |
           -------------------------------------------------
 projected vibrational frequencies (cm⁻¹)
eigval :       -0.00    -0.00     0.00     0.00     0.00     0.00
eigval :       60.21    64.30    66.60    68.73    71.94    73.36
eigval :       76.78    77.99    80.92    83.05    86.02    87.52
eigval :       90.93    95.26    98.48   105.58   109.13   111.68
eigval :      112.01   117.58   122.03   123.11   126.49   128.94
eigval :      134.61   141.66   150.09   166.49   168.04   169.76
eigval :      177.38   180.88   187.14   192.97   199.28   207.12
eigval :      214.77   219.71   221.52   228.64   233.52   242.05
eigval :      249.10   252.12   257.37   264.71   267.51   274.46
eigval :      284.60   287.72   293.83   300.59   307.22   308.70
eigval :      316.43   320.36   326.42   330.95   338.83   340.43
eigval :      344.94   350.46   359.45   365.10   366.82   370.25
eigval :      379.97   380.66   382.61   387.75   392.64   397.56
eigval :      401.37   404.67   412.71   415.89   420.59   426.82
eigval :      429.97   437.40   442.20   458.54   478.97   487.68
eigval :      494.51   508.31   513.85   521.30   524.37   532.83
eigval :      545.32   548.16   558.12   561.19   574.84   587.32
eigval :      589.04   591.64   592.05   593.58   601.11   618.32
eigval :      620.26   624.44   644.36   653.32   654.78   657.54
eigval :      666.02   669.05   673.52   683.38   696.77   699.13
eigval :      700.12   732.38   733.02   747.02   759.66   773.01
eigval :      774.93   781.78   783.49   788.85   790.72   813.06
eigval :      835.47   848.62   852.17   858.74   868.81   889.77
eigval :      890.68   894.34   895.20   904.31   912.99   917.30
eigval :      924.35   930.72   932.47   939.88   942.10   943.07
eigval :      945.59   945.98   947.40   949.50   952.76   966.24
eigval :      970.60   979.67   982.80   985.46   988.05   993.79
eigval :     1003.96  1012.03  1014.30  1014.58  1017.00  1019.16
eigval :     1019.53  1024.86  1029.38  1033.22  1046.06  1053.07
eigval :     1055.99  1062.69  1072.63  1078.37  1083.60  1084.25
eigval :     1085.74  1086.80  1090.67  1091.51  1098.09  1104.77
eigval :     1107.00  1113.03  1116.98  1123.20  1128.09  1129.86
eigval :     1133.96  1135.81  1136.85  1151.99  1156.53  1158.83
eigval :     1163.22  1168.05  1174.83  1181.32  1186.76  1188.79
eigval :     1188.95  1189.94  1190.36  1190.32  1193.43  1196.64
eigval :     1199.58  1202.36  1205.31  1205.80  1219.80  1227.58
eigval :     1230.88  1232.75  1238.15  1240.42  1242.10  1248.81
eigval :     1251.72  1268.85  1273.63  1279.80  1284.31  1285.55
eigval :     1285.78  1288.80  1291.53  1296.45  1303.45  1309.73
eigval :     1314.82  1319.52  1320.56  1323.94  1326.16  1329.03
eigval :     1329.30  1333.98  1336.27  1346.29  1351.72  1356.69
eigval :     1367.16  1380.94  1390.60  1399.39  1405.89  1412.95
eigval :     1423.99  1425.34  1434.08  1434.34  1441.48  1443.12
eigval :     1447.83  1456.78  1460.01  1461.68  1465.29  1470.85
eigval :     1474.07  1475.53  1475.10  1477.23  1488.55  1493.40
eigval :     1505.42  1509.91  1519.23  1524.37  1531.17  1582.71
eigval :     1585.48  1590.68  1593.63  1597.57  1603.13  1654.14
eigval :     1702.18  1704.81  1711.23  1763.08  1771.34  1773.12
eigval :     2855.34  2861.99  2892.68  2898.47  2929.21  2944.11
eigval :     2954.01  2976.99  2979.37  2982.02  2990.05  2994.57
eigval :     3007.79  3018.72  3022.43  3024.30  3026.01  3031.08
eigval :     3034.30  3035.03  3040.19  3046.93  3050.00  3053.34
eigval :     3054.25  3057.02  3065.42  3068.59  3072.94  3076.80
eigval :     3083.75  3084.40  3085.21  3086.83  3087.31  3090.09
eigval :     3093.47  3093.73  3096.39  3096.87  3100.50  3101.96
eigval :     3102.79  3107.20  3112.41  3151.93  3167.08  3369.71
eigval :     3375.47  3383.16  3435.52
 reduced masses (amu)
    1:      7.19    2:      7.21    3:      7.13    4:      7.04    5:      7.49    6:      7.20
    7:     12.28    8:      8.00    9:      7.48   10:      7.20   11:      6.83   12:      6.69
   13:      8.11   14:      7.77   15:      7.06   16:      6.02   17:      7.27   18:      8.11
   19:      5.72   20:      5.36   21:      5.74   22:      5.20   23:      6.21   24:      4.81
   25:      5.60   26:      5.27   27:      4.99   28:      4.52   29:      4.42   30:      4.57
   31:      4.93   32:      5.33   33:      5.49   34:      5.05   35:      4.07   36:      5.05
   37:      5.10   38:      4.88   39:      4.85   40:      4.69   41:      5.48   42:      5.22
   43:      4.56   44:      3.24   45:      1.25   46:      4.09   47:      4.34   48:      2.53
   49:      1.46   50:      1.96   51:      3.75   52:      3.41   53:      3.47   54:      3.48
   55:      3.59   56:      5.56   57:      1.96   58:      1.14   59:      2.97   60:      2.90
   61:      3.32   62:      6.81   63:      2.42   64:      5.48   65:      3.92   66:      2.70
   67:      3.13   68:      2.69   69:      3.23   70:      2.82   71:      3.39   72:      2.67
   73:      2.67   74:      2.78   75:      3.08   76:      3.07   77:      3.78   78:      4.30
   79:      2.45   80:      3.86   81:      3.39   82:      3.40   83:      3.70   84:      3.94
   85:      1.65   86:      4.55   87:      3.48   88:      3.84   89:      3.81   90:      2.83
   91:      3.07   92:      3.08   93:      2.87   94:      3.00   95:      3.94   96:      4.18
   97:      4.79   98:      5.60   99:      3.85  100:      3.22  101:      3.48  102:      3.79
  103:      6.46  104:      4.54  105:      5.06  106:      6.54  107:      5.94  108:      4.29
  109:      3.98  110:      4.44  111:      5.25  112:      4.98  113:      5.01  114:      5.31
  115:      4.65  116:      5.33  117:      4.60  118:      3.65  119:      4.03  120:      2.73
  121:      3.11  122:      4.26  123:      1.47  124:      3.05  125:      3.13  126:      2.41
  127:      3.63  128:      3.76  129:      1.66  130:      1.98  131:      3.56  132:      4.12
  133:      3.94  134:      6.52  135:      3.61  136:      3.94  137:      3.10  138:      2.15
  139:      1.23  140:      1.24  141:      1.33  142:      3.24  143:      2.05  144:      1.74
  145:      1.35  146:      2.23  147:      1.41  148:      1.60  149:      1.73  150:      1.34
  151:      1.30  152:      1.22  153:      1.23  154:      1.23  155:      2.54  156:      2.68
  157:      3.50  158:      3.03  159:      6.02  160:      3.77  161:      3.97  162:      4.25
  163:      1.93  164:      2.64  165:      2.46  166:      1.72  167:      1.72  168:      1.93
  169:      1.64  170:      1.44  171:      2.47  172:      2.00  173:      2.90  174:      2.86
  175:      4.00  176:      2.52  177:      4.13  178:      4.59  179:      2.19  180:      2.15
  181:      2.26  182:      2.92  183:      3.07  184:      2.11  185:      4.19  186:      3.46
  187:      4.51  188:      2.53  189:      2.27  190:      2.46  191:      1.37  192:      3.45
  193:      2.59  194:      2.44  195:      1.92  196:      1.27  197:      2.00  198:      1.46
  199:      2.25  200:      2.14  201:      3.23  202:      1.99  203:      2.35  204:      2.22
  205:      1.32  206:      1.32  207:      1.27  208:      1.06  209:      1.86  210:      2.16
  211:      1.82  212:      1.30  213:      2.08  214:      1.14  215:      1.60  216:      3.02
  217:      1.49  218:      1.70  219:      1.66  220:      1.60  221:      1.92  222:      1.27
  223:      1.85  224:      1.51  225:      1.31  226:      1.31  227:      1.37  228:      1.38
  229:      1.25  230:      1.37  231:      1.75  232:      2.14  233:      1.60  234:      1.26
  235:      1.28  236:      2.36  237:      1.85  238:      2.00  239:      2.08  240:      2.73
  241:      2.23  242:      1.55  243:      2.61  244:      1.36  245:      1.42  246:      1.33
  247:      1.25  248:      1.24  249:      1.17  250:      2.46  251:      1.21  252:      1.20
  253:      1.16  254:      1.19  255:      2.81  256:      2.81  257:      2.73  258:      1.07
  259:      1.07  260:      1.07  261:      2.79  262:      1.06  263:      1.09  264:      2.94
  265:      1.17  266:      1.41  267:      1.08  268:      1.55  269:      1.06  270:      1.06
  271:      1.06  272:      1.06  273:      1.06  274:      1.06  275:      1.06  276:      8.14
  277:      7.97  278:      7.73  279:      7.97  280:      7.73  281:      7.86  282:     10.25
  283:     10.80  284:     11.39  285:     12.71  286:     12.30  287:     12.08  288:     12.25
  289:      1.07  290:      1.07  291:      1.07  292:      1.07  293:      1.07  294:      1.07
  295:      1.09  296:      1.07  297:      1.08  298:      1.06  299:      1.09  300:      1.05
  301:      1.10  302:      1.05  303:      1.07  304:      1.07  305:      1.09  306:      1.08
  307:      1.04  308:      1.08  309:      1.05  310:      1.08  311:      1.07  312:      1.08
  313:      1.09  314:      1.08  315:      1.06  316:      1.08  317:      1.06  318:      1.08
  319:      1.06  320:      1.08  321:      1.08  322:      1.08  323:      1.08  324:      1.08
  325:      1.08  326:      1.08  327:      1.07  328:      1.09  329:      1.08  330:      1.09
  331:      1.09  332:      1.09  333:      1.09  334:      1.08  335:      1.07  336:      1.07
  337:      1.07  338:      1.07  339:      1.06
 IR intensities (km·mol⁻¹)
    1:      0.14    2:      0.26    3:      0.20    4:      0.21    5:      0.08    6:      0.05
    7:      2.67    8:      0.13    9:      0.19   10:      0.66   11:      0.10   12:      0.93
   13:      1.82   14:      0.28   15:      0.14   16:      0.91   17:      0.20   18:      0.72
   19:      1.46   20:      2.27   21:      0.91   22:      0.26   23:      0.34   24:      1.25
   25:      1.58   26:      0.18   27:      1.50   28:      3.64   29:      2.89   30:      4.73
   31:      6.02   32:      7.46   33:      0.30   34:      3.78   35:      0.73   36:      1.41
   37:      1.73   38:      2.26   39:      5.50   40:      1.86   41:      5.46   42:      0.17
   43:      2.79   44:      4.26   45:      1.65   46:     16.48   47:      0.34   48:      0.37
   49:      0.12   50:      2.95   51:      0.50   52:      2.31   53:      0.42   54:      3.69
   55:      4.85   56:      5.43   57:      9.82   58:      0.35   59:      5.63   60:      1.34
   61:      3.10   62:      9.20   63:     26.61   64:     21.45   65:     21.18   66:     39.68
   67:     10.15   68:      7.54   69:      8.60   70:     26.43   71:      5.45   72:      3.06
   73:      2.30   74:      0.50   75:      1.29   76:      0.63   77:      6.45   78:     11.24
   79:     17.80   80:      2.15   81:      7.34   82:     15.53   83:     14.40   84:     18.16
   85:     46.84   86:      6.83   87:     12.80   88:      4.31   89:      3.19   90:     16.39
   91:     35.98   92:     14.07   93:     35.83   94:     13.83   95:     12.67   96:      0.75
   97:      6.92   98:      2.40   99:      1.80  100:     14.58  101:      7.31  102:     11.09
  103:      0.90  104:      4.53  105:      2.78  106:      2.09  107:      0.97  108:      6.34
  109:      9.74  110:     33.72  111:     18.75  112:      0.64  113:      3.79  114:     21.32
  115:     12.70  116:      5.68  117:      1.36  118:     13.77  119:     11.68  120:     79.22
  121:     12.49  122:     16.41  123:     78.70  124:     32.13  125:      1.78  126:      3.09
  127:      7.30  128:     35.93  129:     23.01  130:      3.72  131:      6.70  132:      8.11
  133:      1.17  134:      7.09  135:      7.26  136:      8.69  137:      2.66  138:     10.11
  139:      0.44  140:      0.59  141:      2.91  142:     31.30  143:     17.05  144:      6.39
  145:      1.36  146:      2.70  147:      1.25  148:      9.09  149:     19.02  150:      1.85
  151:      0.28  152:      2.52  153:      2.15  154:      1.07  155:     22.66  156:      0.76
  157:     34.13  158:     21.70  159:      1.72  160:      8.94  161:      1.79  162:     64.38
  163:     50.90  164:     14.22  165:      4.88  166:     33.99  167:     24.48  168:     24.77
  169:     25.82  170:      5.12  171:     30.30  172:      6.18  173:     39.44  174:     22.27
  175:     29.63  176:     31.13  177:     41.27  178:     24.75  179:     33.61  180:      6.68
  181:      0.67  182:     24.79  183:     50.13  184:      1.29  185:    115.68  186:      8.94
  187:     43.73  188:      9.61  189:    167.08  190:     34.83  191:      1.12  192:     97.00
  193:     33.72  194:     89.06  195:     30.65  196:      6.39  197:     22.26  198:     22.70
  199:      4.30  200:      0.10  201:    200.94  202:    141.60  203:      5.85  204:    135.49
  205:      6.49  206:     40.20  207:     24.40  208:      9.54  209:    192.15  210:    416.28
  211:     88.76  212:      5.47  213:     66.15  214:      6.01  215:      4.42  216:     34.90
  217:    118.95  218:     77.14  219:    105.26  220:     19.60  221:    133.41  222:     34.20
  223:     79.30  224:     86.49  225:     10.29  226:      5.46  227:     39.16  228:      6.96
  229:      2.21  230:     19.11  231:     10.80  232:     23.52  233:      6.05  234:     60.63
  235:     36.93  236:     49.63  237:     39.01  238:      7.58  239:     33.30  240:      9.59
  241:      5.14  242:     14.54  243:    142.13  244:      6.15  245:     86.53  246:     39.44
  247:     37.39  248:     48.80  249:     30.06  250:    233.31  251:      7.08  252:     25.13
  253:      5.16  254:     11.89  255:     11.74  256:      3.54  257:      1.99  258:     13.93
  259:     33.52  260:     12.79  261:     13.53  262:     27.34  263:      2.83  264:     34.50
  265:     10.34  266:      7.23  267:     10.77  268:      0.85  269:      2.43  270:     11.23
  271:      3.67  272:      7.86  273:      4.76  274:      0.65  275:      6.14  276:      0.77
  277:      0.24  278:     25.60  279:      0.12  280:      8.25  281:      2.94  282:      7.54
  283:    541.54  284:    222.63  285:    427.97  286:    313.72  287:    805.35  288:    158.88
  289:     32.94  290:      0.72  291:     23.77  292:     29.33  293:      9.91  294:     11.35
  295:     21.29  296:      0.05  297:      2.05  298:     17.38  299:      5.00  300:     13.80
  301:      6.19  302:      7.04  303:      0.74  304:      2.66  305:      2.05  306:     17.00
  307:      5.60  308:     21.84  309:      0.37  310:     13.63  311:      6.98  312:      6.49
  313:     34.74  314:      4.38  315:      7.59  316:     15.50  317:      4.88  318:      9.16
  319:      3.98  320:      6.97  321:      5.23  322:      2.57  323:     20.60  324:     38.10
  325:     21.37  326:     27.99  327:     11.28  328:     36.02  329:     23.89  330:     36.22
  331:     34.33  332:     22.12  333:     17.67  334:      5.33  335:     18.18  336:    401.45
  337:     60.32  338:     91.42  339:     55.95
 Raman intensities (Ä⁴*amu⁻¹)
    1:      0.00    2:      0.00    3:      0.00    4:      0.00    5:      0.00    6:      0.00
    7:      0.00    8:      0.00    9:      0.00   10:      0.00   11:      0.00   12:      0.00
   13:      0.00   14:      0.00   15:      0.00   16:      0.00   17:      0.00   18:      0.00
   19:      0.00   20:      0.00   21:      0.00   22:      0.00   23:      0.00   24:      0.00
   25:      0.00   26:      0.00   27:      0.00   28:      0.00   29:      0.00   30:      0.00
   31:      0.00   32:      0.00   33:      0.00   34:      0.00   35:      0.00   36:      0.00
   37:      0.00   38:      0.00   39:      0.00   40:      0.00   41:      0.00   42:      0.00
   43:      0.00   44:      0.00   45:      0.00   46:      0.00   47:      0.00   48:      0.00
   49:      0.00   50:      0.00   51:      0.00   52:      0.00   53:      0.00   54:      0.00
   55:      0.00   56:      0.00   57:      0.00   58:      0.00   59:      0.00   60:      0.00
   61:      0.00   62:      0.00   63:      0.00   64:      0.00   65:      0.00   66:      0.00
   67:      0.00   68:      0.00   69:      0.00   70:      0.00   71:      0.00   72:      0.00
   73:      0.00   74:      0.00   75:      0.00   76:      0.00   77:      0.00   78:      0.00
   79:      0.00   80:      0.00   81:      0.00   82:      0.00   83:      0.00   84:      0.00
   85:      0.00   86:      0.00   87:      0.00   88:      0.00   89:      0.00   90:      0.00
   91:      0.00   92:      0.00   93:      0.00   94:      0.00   95:      0.00   96:      0.00
   97:      0.00   98:      0.00   99:      0.00  100:      0.00  101:      0.00  102:      0.00
  103:      0.00  104:      0.00  105:      0.00  106:      0.00  107:      0.00  108:      0.00
  109:      0.00  110:      0.00  111:      0.00  112:      0.00  113:      0.00  114:      0.00
  115:      0.00  116:      0.00  117:      0.00  118:      0.00  119:      0.00  120:      0.00
  121:      0.00  122:      0.00  123:      0.00  124:      0.00  125:      0.00  126:      0.00
  127:      0.00  128:      0.00  129:      0.00  130:      0.00  131:      0.00  132:      0.00
  133:      0.00  134:      0.00  135:      0.00  136:      0.00  137:      0.00  138:      0.00
  139:      0.00  140:      0.00  141:      0.00  142:      0.00  143:      0.00  144:      0.00
  145:      0.00  146:      0.00  147:      0.00  148:      0.00  149:      0.00  150:      0.00
  151:      0.00  152:      0.00  153:      0.00  154:      0.00  155:      0.00  156:      0.00
  157:      0.00  158:      0.00  159:      0.00  160:      0.00  161:      0.00  162:      0.00
  163:      0.00  164:      0.00  165:      0.00  166:      0.00  167:      0.00  168:      0.00
Molecule has no symmetry elements
It seems to be the C1 point group
  169:      0.00  170:      0.00  171:      0.00  172:      0.00  173:      0.00  174:      0.00
  175:      0.00  176:      0.00  177:      0.00  178:      0.00  179:      0.00  180:      0.00
  181:      0.00  182:      0.00  183:      0.00  184:      0.00  185:      0.00  186:      0.00
  187:      0.00  188:      0.00  189:      0.00  190:      0.00  191:      0.00  192:      0.00
  193:      0.00  194:      0.00  195:      0.00  196:      0.00  197:      0.00  198:      0.00
  199:      0.00  200:      0.00  201:      0.00  202:      0.00  203:      0.00  204:      0.00
  205:      0.00  206:      0.00  207:      0.00  208:      0.00  209:      0.00  210:      0.00
  211:      0.00  212:      0.00  213:      0.00  214:      0.00  215:      0.00  216:      0.00
  217:      0.00  218:      0.00  219:      0.00  220:      0.00  221:      0.00  222:      0.00
  223:      0.00  224:      0.00  225:      0.00  226:      0.00  227:      0.00  228:      0.00
  229:      0.00  230:      0.00  231:      0.00  232:      0.00  233:      0.00  234:      0.00
  235:      0.00  236:      0.00  237:      0.00  238:      0.00  239:      0.00  240:      0.00
  241:      0.00  242:      0.00  243:      0.00  244:      0.00  245:      0.00  246:      0.00
  247:      0.00  248:      0.00  249:      0.00  250:      0.00  251:      0.00  252:      0.00
  253:      0.00  254:      0.00  255:      0.00  256:      0.00  257:      0.00  258:      0.00
  259:      0.00  260:      0.00  261:      0.00  262:      0.00  263:      0.00  264:      0.00
  265:      0.00  266:      0.00  267:      0.00  268:      0.00  269:      0.00  270:      0.00
  271:      0.00  272:      0.00  273:      0.00  274:      0.00  275:      0.00  276:      0.00
  277:      0.00  278:      0.00  279:      0.00  280:      0.00  281:      0.00  282:      0.00
  283:      0.00  284:      0.00  285:      0.00  286:      0.00  287:      0.00  288:      0.00
  289:      0.00  290:      0.00  291:      0.00  292:      0.00  293:      0.00  294:      0.00
  295:      0.00  296:      0.00  297:      0.00  298:      0.00  299:      0.00  300:      0.00
  301:      0.00  302:      0.00  303:      0.00  304:      0.00  305:      0.00  306:      0.00
  307:      0.00  308:      0.00  309:      0.00  310:      0.00  311:      0.00  312:      0.00
  313:      0.00  314:      0.00  315:      0.00  316:      0.00  317:      0.00  318:      0.00
  319:      0.00  320:      0.00  321:      0.00  322:      0.00  323:      0.00  324:      0.00
  325:      0.00  326:      0.00  327:      0.00  328:      0.00  329:      0.00  330:      0.00
  331:      0.00  332:      0.00  333:      0.00  334:      0.00  335:      0.00  336:      0.00
  337:      0.00  338:      0.00  339:      0.00
 output can be read by thermo (or use thermo option).
 writing <g98.out> molden fake output.
 recommended (thermochemical) frequency scaling factor: 1.0
           -------------------------------------------------
          |             Thermodynamic Functions             |
           -------------------------------------------------

c1  symmetry found (for desy threshold:  0.10E+00) used in thermo

          ...................................................
          :                      SETUP                      :
          :.................................................:
          :  # frequencies                         333      :
          :  # imaginary freq.                       0      :
          :  linear?                             false      :
          :  only rotor calc.                    false      :
          :  symmetry                               c1      :
          :  rotational number                       1      :
          :  scaling factor                  1.0000000      :
          :  rotor cutoff                   50.0000000 cm⁻¹ :
          :  imag. cutoff                  -20.0000000 cm⁻¹ :
          :.................................................:

    mode    ω/cm⁻¹     T·S(HO)/kcal·mol⁻¹    T·S(FR)/kcal·mol⁻¹   T·S(vib)
   ------------------------------------------------------------------------
       1     60.21    -1.32684 ( 67.77%)    -1.00149 ( 32.23%)    -1.22199
       2     64.30    -1.28820 ( 73.23%)    -0.98203 ( 26.77%)    -1.20623
       3     66.60    -1.26759 ( 75.89%)    -0.97164 ( 24.11%)    -1.19623
       4     68.73    -1.24904 ( 78.12%)    -0.96228 ( 21.88%)    -1.18631
       5     71.94    -1.22231 ( 81.08%)    -0.94878 ( 18.92%)    -1.17055
       6     73.36    -1.21080 ( 82.25%)    -0.94297 ( 17.75%)    -1.16327
       7     76.78    -1.18408 ( 84.76%)    -0.92946 ( 15.24%)    -1.14528
       8     77.99    -1.17497 ( 85.55%)    -0.92486 ( 14.45%)    -1.13882
       9     80.92    -1.15336 ( 87.28%)    -0.91392 ( 12.72%)    -1.12290
      10     83.05    -1.13815 ( 88.39%)    -0.90621 ( 11.61%)    -1.11122
      11     86.02    -1.11763 ( 89.76%)    -0.89581 ( 10.24%)    -1.09491
      12     87.52    -1.10752 ( 90.37%)    -0.89068 (  9.63%)    -1.08665
      13     90.93    -1.08523 ( 91.62%)    -0.87936 (  8.38%)    -1.06798
      14     95.26    -1.05815 ( 92.95%)    -0.86559 (  7.05%)    -1.04456
      15     98.48    -1.03878 ( 93.77%)    -0.85573 (  6.23%)    -1.02738
      16    105.58    -0.99837 ( 95.21%)    -0.83511 (  4.79%)    -0.99055
      17    109.13    -0.97921 ( 95.78%)    -0.82532 (  4.22%)    -0.97272
      18    111.68    -0.96587 ( 96.14%)    -0.81849 (  3.86%)    -0.96017
      19    112.01    -0.96414 ( 96.18%)    -0.81761 (  3.82%)    -0.95855
      20    117.58    -0.93613 ( 96.83%)    -0.80324 (  3.17%)    -0.93192
      21    122.03    -0.91470 ( 97.26%)    -0.79222 (  2.74%)    -0.91134
      22    123.11    -0.90966 ( 97.35%)    -0.78962 (  2.65%)    -0.90648
      23    126.49    -0.89406 ( 97.62%)    -0.78159 (  2.38%)    -0.89138
      24    128.94    -0.88307 ( 97.79%)    -0.77592 (  2.21%)    -0.88070
      25    134.61    -0.85841 ( 98.13%)    -0.76317 (  1.87%)    -0.85663
      26    141.66    -0.82926 ( 98.47%)    -0.74805 (  1.53%)    -0.82802
      27    150.09    -0.79638 ( 98.78%)    -0.73091 (  1.22%)    -0.79559
      28    166.49    -0.73784 ( 99.19%)    -0.70020 (  0.81%)    -0.73754
      29    168.04    -0.73263 ( 99.22%)    -0.69744 (  0.78%)    -0.73235
      30    169.76    -0.72692 ( 99.25%)    -0.69443 (  0.75%)    -0.72668
      31    177.38    -0.70238 ( 99.37%)    -0.68142 (  0.63%)    -0.70225
      32    180.88    -0.69152 ( 99.42%)    -0.67564 (  0.58%)    -0.69142
      33    187.14    -0.67261 ( 99.49%)    -0.66555 (  0.51%)    -0.67257
      34    192.97    -0.65566 ( 99.55%)    -0.65647 (  0.45%)    -0.65566
      35    199.28    -0.63796 ( 99.61%)    -0.64694 (  0.39%)    -0.63800
      36    207.12    -0.61684 ( 99.66%)    -0.63551 (  0.34%)    -0.61691
      37    214.77    -0.59711 ( 99.71%)    -0.62476 (  0.29%)    -0.59719
      38    219.71    -0.58482 ( 99.73%)    -0.61803 (  0.27%)    -0.58491
      39    221.52    -0.58040 ( 99.74%)    -0.61560 (  0.26%)    -0.58049
      40    228.64    -0.56339 ( 99.77%)    -0.60623 (  0.23%)    -0.56349
      41    233.52    -0.55209 ( 99.79%)    -0.59997 (  0.21%)    -0.55219
      42    242.05    -0.53303 ( 99.82%)    -0.58934 (  0.18%)    -0.53313
      43    249.10    -0.51786 ( 99.84%)    -0.58083 (  0.16%)    -0.51796
      44    252.12    -0.51153 ( 99.85%)    -0.57726 (  0.15%)    -0.51163
      45    257.37    -0.50076 ( 99.86%)    -0.57116 (  0.14%)    -0.50086
      46    264.71    -0.48614 ( 99.87%)    -0.56283 (  0.13%)    -0.48624
      47    267.51    -0.48070 ( 99.88%)    -0.55972 (  0.12%)    -0.48079
      48    274.46    -0.46749 ( 99.89%)    -0.55211 (  0.11%)    -0.46758
      49    284.60    -0.44897 ( 99.90%)    -0.54136 (  0.10%)    -0.44906
      50    287.72    -0.44346 ( 99.91%)    -0.53814 (  0.09%)    -0.44354
      51    293.83    -0.43286 ( 99.92%)    -0.53192 (  0.08%)    -0.43295
   ------------------------------------------------------------------------

   temp. (K)  partition function   enthalpy   heat capacity  entropy
                                   cal/mol     cal/K/mol   cal/K/mol   J/K/mol
 298.15  VIB  0.878E+20            33075.308    218.627    199.906
Note: The following floating-point exceptions are signalling: IEEE_UNDERFLOW_FLAG IEEE_DENORMAL
normal termination of xtb
         ROT  0.112E+09              888.727      2.981     39.803
         INT  0.979E+28            33964.035    221.608    239.710
         TR   0.763E+27             1481.212      4.968     46.111
         TOT                       35445.2477   226.5759   285.8204  1195.8724

       T/K    H(0)-H(T)+PV         H(T)/Eh          T*S/Eh         G(T)/Eh
   ------------------------------------------------------------------------
    298.15    0.564856E-01    0.956414E+00    0.135802E+00    0.820611E+00
   ------------------------------------------------------------------------

         :::::::::::::::::::::::::::::::::::::::::::::::::::::
         ::                  THERMODYNAMIC                  ::
         :::::::::::::::::::::::::::::::::::::::::::::::::::::
         :: total free energy        -185.774622202484 Eh   ::
         ::.................................................::
         :: total energy             -186.595233665005 Eh   ::
         :: zero point energy           0.899928346815 Eh   ::
         :: G(RRHO) w/o ZPVE           -0.079316884294 Eh   ::
         :: G(RRHO) contrib.            0.820611462521 Eh   ::
         :::::::::::::::::::::::::::::::::::::::::::::::::::::

optimized geometry written to: xtbopt.xyz


           -------------------------------------------------
          | TOTAL ENERGY             -186.595233665005 Eh   |
          | TOTAL ENTHALPY           -185.638819720584 Eh   |
          | TOTAL FREE ENERGY        -185.774622202484 Eh   |
          | GRADIENT NORM               0.000639862886 Eh/α |
          | HOMO-LUMO GAP               2.777674856137 eV   |
           -------------------------------------------------

------------------------------------------------------------------------
 * finished run on 2025/11/19 at 17:27:03.788     
------------------------------------------------------------------------
 total:
 * wall-time:     0 d,  0 h,  1 min, 41.804 sec
 *  cpu-time:     0 d,  0 h,  3 min, 58.073 sec
 * ratio c/w:     2.339 speedup
 SCF:
 * wall-time:     0 d,  0 h,  0 min,  0.135 sec
 *  cpu-time:     0 d,  0 h,  0 min,  0.219 sec
 * ratio c/w:     1.622 speedup
 analytical hessian:
 * wall-time:     0 d,  0 h,  0 min, 37.605 sec
 *  cpu-time:     0 d,  0 h,  2 min, 29.039 sec
 * ratio c/w:     3.963 speedup

